-5.695045627617301154e-01 3.992743705348447580e+00 1.455571620981481296e+00 3.580038246282980285e+00 4.401884893051674297e+00 2.682774105633234374e+00 4.532400511687014522e+00 6.150309849876533619e+00 2.473839811461123084e+00 2.532567087508749815e+00 9.720909960788135962e+00 1.768133169883248090e+00 7.138917996909643904e+00 4.570961507734488727e+00 1.449817421832112929e+00 8.184746374936555213e+00 6.243826774966134252e+00 1.705525999115257818e+00 2.875092032039141543e+00 2.771140905086006523e+00 1.323435908520198767e+00 1.568244670563928800e+00 4.670814409141266665e+00 1.486275146550667836e+00 6.966270156026026505e+00 8.890712251590530357e+00 2.443133447437736638e+00 3.539779359599046771e+00 7.981839529996335614e+00 1.660510698010315256e+00 6.037785050549557830e-01 5.653682248221302054e+00 1.883358843071778255e+00 2.436601344496735599e+00 7.499400781886847334e+00 2.298813479446892849e+00 4.273848846298814230e+00 1.092350537085871842e+01 1.350774613627936827e+00 6.132887390865083610e+00 8.945990657515585198e+00 2.155642098324868527e+00 -8.518454403610410397e-01 8.745795658092829328e+00 2.883368923339064249e+00 1.160565666303069315e-01 8.574342027620007300e+00 1.373301828029797500e+00 1.728291721686553206e+00 5.314323625734600931e+00 1.130226639319932724e+00 2.065368663405628968e+00 5.230857619296558347e+00 2.805150502277229840e+00 7.608602709786536911e-02 1.100656688242424330e+01 1.940206012733060037e+00 2.269647901418408331e+00 7.434573057255275508e+00 1.144855611598817768e+00 8.142286496845878574e+00 5.247713543664207947e+00 2.353886332711479845e+00 5.881327026058145613e+00 8.995607406239059856e+00 1.587765356314237764e+00 -7.787546466603505468e-01 7.013362266711491877e+00 1.085330282572086080e+00 2.205296967689850618e+00 7.774427272143348056e+00 2.326874752738188334e+00 8.021377087774942183e+00 3.030992994827163223e+00 2.481955825487400347e+00 8.559193765450286762e+00 4.340646057518551260e+00 1.011831744288971935e+00 -1.182080959250307872e+00 1.024818567880248565e+01 9.092035025217939381e-01 1.998184148264778193e+00 4.768092356513611740e+00 1.765263961587108854e+00 8.893481917101162537e+00 3.001190271812602006e+00 1.219454393007068260e+00 6.328238182953142221e+00 9.578092886612669332e+00 2.206993399128792444e+00 -2.580161818643259553e-01 9.218817148845513287e+00 2.019066290553850784e+00 1.921894030097243355e+00 4.952116519453440446e+00 5.604606985112694506e-01 -3.224403719572237037e+00 1.031343897020874856e+01 2.808768716335951598e+00 2.896858266836519924e+00 3.777839464028211136e+00 9.815180713594289230e-01 4.554735431633651466e+00 7.440370082007326857e+00 1.977635797433512810e+00 4.586447573319307303e+00 3.374631748546608190e+00 9.118371666708015022e-01 7.097802665816563383e+00 7.884867024936696112e+00 7.891052973333411158e-01 5.373824365052685792e+00 5.937873447391570636e+00 2.142379112451341605e+00 -2.474457099937002358e+00 1.061415006195223221e+01 8.714952096223588240e-01 8.800293479852333789e+00 1.886112707019262702e+00 2.136322182980222362e+00 9.759081111124960906e-01 5.366780108467063215e+00 1.251877706605458496e+00 3.455728271227014314e+00 6.968120729963218629e+00 1.566875644773082055e+00 9.078802546356518732e+00 4.080060635126416813e+00 1.833225190135361338e+00 4.509088311557465367e+00 4.804740222908403524e+00 2.043582461011510532e+00 1.070829063757867594e+01 2.368312202195638427e+00 1.428969776693172378e+00 5.991175984533232857e+00 2.949161669002086317e+00 6.076413239257628662e-01 8.941171031362439292e-01 3.348652152696723672e+00 9.700863222041065104e-01 2.596192880063431740e+00 9.305207772799432675e+00 1.138260437736390962e+00 3.123514568121138701e+00 9.706601203454178872e+00 2.698826917218210664e+00 1.870544062411744896e-02 6.802131964907512263e+00 1.699945107534305055e+00 -1.660584528845306052e+00 8.535715641142196830e+00 2.343197627296492058e+00
-9.779108942083898637e-02 6.020397149299256512e+00 5.191440190860101112e+00 3.308937540407515421e+00 2.657015721676524667e+00 6.819680895391378783e+00 4.930650535937252776e+00 4.543390252558580755e+00 5.184574973114180807e+00 2.628347980724812682e+00 6.117486106990699390e+00 3.271360101820115496e+00 5.122598402986996646e+00 2.914978772192402534e+00 3.847519436863253706e+00 4.269809441853149146e+00 3.048928705120397264e+00 5.090633280009527972e+00 9.656334898920401200e-01 4.606899085532661253e+00 6.779223399660581073e+00 1.469479091974785767e+00 2.809008930335688881e+00 4.056741281957735090e+00 6.751125258691733855e+00 2.253770198895881816e+00 5.331939752323048509e+00 5.546620948007198182e-01 5.809078884679391486e+00 2.763664905556066032e+00 2.137864867863623342e-01 6.048778556505681081e+00 3.212449813334889104e+00 1.965446403675757514e+00 4.442279547520235461e+00 6.175931995475803404e+00 3.475220571175249962e+00 2.834028523856407134e+00 4.044218086994446182e+00 3.013463339648291051e+00 5.490277983429397324e+00 5.531530070998665671e+00 3.485120393434602892e+00 1.041115009492210308e-01 5.021554215167670421e+00 1.125071647302803290e+00 4.472977901443200288e+00 2.213575962905910632e+00 2.854096065884592637e-01 6.796490849667861767e+00 2.981632662120587085e+00 -4.435617248065427676e-01 6.516505001491795568e+00 5.320604065333428778e+00 2.637072126296202246e+00 4.845993977414706499e+00 2.199962673612093855e+00 3.202609889792358722e+00 4.084115693446120687e+00 3.605737574991708438e+00 8.518060041082352596e-01 4.835863975873324172e+00 3.468405032767680751e+00 1.022701828287759129e+00 4.862964417563319763e+00 3.797291565448449369e+00 2.544225844723478680e+00 5.344667292193804542e+00 4.171099720355939233e+00 1.972429134687227803e+00 5.138740439144610761e+00 3.664217065894520786e+00 3.182543042638696029e+00 2.281748316241779762e+00 4.238411170406398476e+00 3.811018601540689943e+00 5.894737123804071111e+00 2.624250317220068851e+00 5.576508169074283483e-01 5.036599847427842391e+00 3.908269817469544272e+00 2.060473812017798778e+00 3.283264623669152282e+00 3.358003526310312736e+00 4.283007258747351109e+00 3.277854069478844501e+00 2.044016978788191441e+00 3.503435761062765774e+00 6.280903032264212982e+00 6.478989710102373678e+00 1.214171263980557303e+00 6.066303231051131561e+00 5.129260809670840970e+00 2.857705782463233923e+00 1.916534249043180704e+00 2.113481696877536731e+00 -1.302132653084357106e+00 7.127344164643524493e+00 2.914383903607884019e+00 1.660159829718425017e+00 5.881310560063407245e+00 5.434979923451687789e+00 5.443993004282193127e+00 3.510133990451846486e+00 6.018604051548482659e+00 1.086986206165865720e+00 3.309761146417737443e+00 7.473528234804078352e+00 2.513103802976839329e+00 3.213343206984079270e+00 3.361227423258822178e+00 8.615131063454193328e-01 5.099258823029159338e+00 3.404212683713176535e+00 2.147240851545551277e-01 5.190993636755716345e+00 3.025889938483753205e+00 3.739020931502274880e+00 1.908613613630683492e+00 3.957094792994350740e+00 4.103510512880435890e+00 3.019828479371942542e+00 2.986992077705233228e+00 1.806330294706102624e+00 3.397852220683407420e+00 6.022412113425851032e+00 5.825921078841247436e+00 3.661739932100890105e+00 3.627705081442453405e+00 3.054148672000507325e-01 5.928804459522401871e+00 6.086755456371267137e+00 7.302505207705441315e+00 8.331630355792783993e-01 3.856236332209863171e+00 5.667407299028072387e+00 1.966719676418115403e+00 1.468293921059606211e+00 8.729508143367065154e-01 2.844664884211765887e+00 4.656836807255185562e+00 -1.418622291780663180e-01 4.877446405948941077e+00 5.761159910534954243e+00 2.207996161519038658e+00 6.543722210871015577e+00 5.149136584549691698e+00 -5.659572880130717687e-01 6.588166282980260746e+00 4.878384116926379299e+00 -2.698727617319413019e-01 1.278089463817433158e+00 4.820267475700787507e+00
