 vasp.5.4.4.18Apr17-6-g9f103f2a35 (build Nov 07 2022 11:18:25) complex          
  
 executed on             LinuxIFC date 2023.02.07  15:07:55
 running on   64 total cores
 distrk:  each k-point on   64 cores,    1 groups
 distr:  one band on NCORES_PER_BAND=   8 cores,    8 groups


--------------------------------------------------------------------------------------------------------


 INCAR:
 POTCAR:    PAW_PBE Na_sv 28Sep2000               
 POTCAR:    PAW_PBE Na_sv 28Sep2000               
   VRHFIN =Na: s1p0                                                             
   LEXCH  = PE                                                                  
   EATOM  =  1307.8686 eV,   96.1256 Ry                                         
                                                                                
   TITEL  = PAW_PBE Na_sv 28Sep2000                                             
   LULTRA =        F    use ultrasoft PP ?                                      
   IUNSCR =        0    unscreen: 0-lin 1-nonlin 2-no                           
   RPACOR =    0.000    partial core radius                                     
   POMASS =   22.990; ZVAL   =    9.000    mass and valenz                      
   RCORE  =    1.450    outmost cutoff radius                                   
   RWIGS  =    1.500; RWIGS  =    0.794    wigner-seitz radius (au A)           
   ENMAX  =  645.640; ENMIN  =  484.230 eV                                      
   RCLOC  =    1.007    cutoff for local pot                                    
   LCOR   =        T    correct aug charges                                     
   LPAW   =        T    paw PP                                                  
   EAUG   =  698.012                                                            
   RMAX   =    1.481    core radius for proj-oper                               
   RAUG   =    1.300    factor for augmentation sphere                          
   RDEP   =    1.539    radius for radial grids                                 
   RDEPT  =    1.250    core radius for aug-charge                              
                                                                                
   Atomic configuration                                                         
    5 entries                                                                   
     n  l   j            E        occ.                                          
     1  0  0.50     -1033.6933   2.0000                                         
     2  0  0.50       -56.7526   2.0000                                         
     3  0  0.50        -2.7440   1.0000                                         
     2  1  1.50       -28.6721   6.0000                                         
     3  2  1.50        -1.3606   0.0000                                         
   Description                                                                  
     l       E           TYP  RCUT    TYP  RCUT                                 
     0    -56.7526473     23  1.200                                             
     0     -2.7439560     23  1.450                                             
     1    -28.6720906     23  1.250                                             
     1     40.8174780     23  1.400                                             
  local pseudopotential read in
  atomic valenz-charges read in
  non local Contribution for L=           0  read in
    real space projection operators read in
  non local Contribution for L=           0  read in
    real space projection operators read in
  non local Contribution for L=           1  read in
    real space projection operators read in
  non local Contribution for L=           1  read in
    real space projection operators read in
    PAW grid and wavefunctions read in
 
   number of l-projection  operators is LMAX  =           4
   number of lm-projection operators is LMMAX =           8
 
 Optimization of the real space projectors (new method)

 maximal supplied QI-value         = 25.89
 optimisation between [QCUT,QGAM] = [ 11.39, 22.78] = [ 36.34,145.35] Ry 
 Optimized for a Real-space Cutoff    1.27 Angstroem

   l    n(q)    QCUT    max X(q) W(low)/X(q) W(high)/X(q)  e(spline) 
   0      9    11.391     6.352    0.32E-04    0.14E-04    0.64E-07
   0      9    11.391    12.451    0.45E-04    0.30E-04    0.14E-06
   1      8    11.391     1.851    0.16E-04    0.21E-04    0.89E-07
   1      8    11.391     2.565    0.19E-03    0.31E-03    0.18E-06
  PAW_PBE Na_sv 28Sep2000               :
 energy of atom  1       EATOM=-1307.8686
 kinetic energy error for atom=    1.4242 (will be added to EATOM!!)
 
 
 POSCAR: Na51                                    
  positions in cartesian coordinates
  No initial velocities read in
 exchange correlation table for  LEXCH =        8
   RHO(1)=    0.500       N(1)  =     2000
   RHO(2)=  100.500       N(2)  =     4000
 


--------------------------------------------------------------------------------------------------------


 ion  position               nearest neighbor table
   1  0.131  0.348  0.494-  47 1.67
   2  0.462  0.384  0.910-  44 1.20  34 1.55  18 1.73  36 1.86  28 1.86
   3  0.610  0.536  0.839-  38 0.93  35 1.38  44 1.41  42 1.63
   4  0.615  0.848  0.600-  48 0.76  49 1.10
   5  0.738  0.399  0.492-  26 1.50  21 1.51
   6  0.890  0.544  0.578-  21 1.19
   7  0.338  0.242  0.449-  34 1.06  36 1.86
   8  0.322  0.407  0.504-  28 0.52  17 0.75  41 0.94  32 1.03  11 1.43  18 1.52  47 1.57  34 1.68
                            18 1.79
   9  0.914  0.775  0.828-  14 0.88  30 0.97  22 1.39  37 1.65
  10  0.615  0.696  0.563-  42 1.02  35 1.19  12 1.36  20 1.48  24 1.51  48 1.71
  11  0.292  0.493  0.639-  41 0.79  50 1.30  17 1.40   8 1.43  28 1.66  18 1.78
  12  0.511  0.654  0.779-  24 0.36  20 1.17  42 1.36  10 1.36  20 1.80
  13  0.799  0.953  0.458-
  14  0.853  0.780  0.731-  22 0.62  30 0.66   9 0.88
  15  0.317  0.763  0.978-  51 0.99  31 1.15  16 1.74  16 1.80  27 1.82
  16  0.383  0.748  0.466-  31 0.99  15 1.74  15 1.80  50 1.80  23 1.82
  17  0.362  0.463  0.383-  32 0.70   8 0.75  41 0.76  28 0.88  18 1.32  11 1.40  18 1.71
  18  0.384  0.456  0.951-  32 0.77  28 1.14  17 1.32   8 1.52  17 1.71   2 1.73  41 1.78  11 1.78
                             8 1.79  41 1.90
  19  0.486  0.960  0.658-  27 1.79  31 1.82
  20  0.496  0.648  0.388-  12 1.17  24 1.23  42 1.34  10 1.48  24 1.80  12 1.80  48 1.90
  21  0.844  0.458  0.798-   6 1.19   5 1.51  43 1.58  26 1.67  26 1.89
  22  0.836  0.784  0.538-  14 0.62  30 0.96   9 1.39  37 1.83
  23  0.247  0.612  0.368-  50 1.03  16 1.82
  24  0.505  0.678  0.789-  12 0.36  20 1.23  10 1.51  42 1.67  20 1.80
  25  0.738  0.264  0.842-  40 1.43  29 1.53  43 1.62  29 1.90
  26  0.836  0.378  0.343-  43 1.01  29 1.40   5 1.50  21 1.67  21 1.89
  27  0.358  0.894  0.308-  39 1.34  31 1.77  19 1.79  15 1.82
  28  0.359  0.416  0.599-   8 0.52  17 0.88  18 1.14  32 1.22  41 1.29  34 1.55  11 1.66  32 1.76
                             2 1.86
  29  0.802  0.262  0.413-  43 1.25  26 1.40  40 1.45  25 1.53  25 1.90
  30  0.895  0.835  0.748-  14 0.66  22 0.96   9 0.97
  31  0.382  0.804  0.685-  16 0.99  15 1.15  51 1.59  27 1.77  19 1.82
  32  0.361  0.432  0.190-  17 0.70  18 0.77   8 1.03  28 1.22  41 1.24  34 1.58  28 1.76
  33  0.206  0.899  0.952-  39 1.29
  34  0.383  0.329  0.333-   7 1.06  28 1.55   2 1.55  32 1.58   8 1.68  36 1.74
  35  0.668  0.649  0.671-  10 1.19  42 1.26   3 1.38  38 1.72
  36  0.493  0.294  0.309-  46 1.50  34 1.74  44 1.83   2 1.86   7 1.86
  37  0.880  0.688  0.268-   9 1.65  22 1.83
  38  0.665  0.518  0.726-   3 0.93  44 1.43  35 1.72
  39  0.276  0.926  0.295-  33 1.29  27 1.34
  40  0.747  0.164  0.724-  25 1.43  29 1.45
  41  0.308  0.468  0.424-  17 0.76  11 0.79   8 0.94  32 1.24  28 1.29  18 1.78  50 1.78  18 1.90

  42  0.565  0.608  0.531-  10 1.02  35 1.26  20 1.34  12 1.36   3 1.63  24 1.67
  43  0.863  0.356  0.622-  26 1.01  29 1.25  21 1.58  25 1.62
  44  0.550  0.419  0.693-   2 1.20   3 1.41  38 1.43  36 1.83
  45  0.912  0.207  0.485-
  46  0.581  0.257  0.206-  36 1.50
  47  0.214  0.292  0.329-   8 1.57   1 1.67
  48  0.602  0.811  0.386-   4 0.76  49 1.54  49 1.70  10 1.71  20 1.90
  49  0.659  0.846  0.915-   4 1.10  48 1.54  48 1.70
  50  0.298  0.593  0.576-  23 1.03  11 1.30  41 1.78  16 1.80
  51  0.247  0.744  0.795-  15 0.99  31 1.59
 

 ----------------------------------------------------------------------------- 
|                                                                             |
|           W    W    AA    RRRRR   N    N  II  N    N   GGGG   !!!           |
|           W    W   A  A   R    R  NN   N  II  NN   N  G    G  !!!           |
|           W    W  A    A  R    R  N N  N  II  N N  N  G       !!!           |
|           W WW W  AAAAAA  RRRRR   N  N N  II  N  N N  G  GGG   !            |
|           WW  WW  A    A  R   R   N   NN  II  N   NN  G    G                |
|           W    W  A    A  R    R  N    N  II  N    N   GGGG   !!!           |
|                                                                             |
|      The distance between some ions is very small                           |
|      please check the nearest neigbor list in the OUTCAR file               |
|          I HOPE YOU KNOW, WHAT YOU ARE  DOING                               |
|                                                                             |
 ----------------------------------------------------------------------------- 


IMPORTANT INFORMATION: All symmetrisations will be switched off!
NOSYMM: (Re-)initialisation of all symmetry stuff for point group C_1.

 
 
 KPOINTS: Automatic mesh                          

Automatic generation of k-mesh.
Space group operators:
 irot       det(A)        alpha          n_x          n_y          n_z        tau_x        tau_y        tau_z
    1     1.000000     0.000000     1.000000     0.000000     0.000000     0.000000     0.000000     0.000000
 
 Subroutine IBZKPT returns following result:
 ===========================================
 
 Found      1 irreducible k-points:
 
 Following reciprocal coordinates:
            Coordinates               Weight
  0.000000  0.000000  0.000000      1.000000
 
 Following cartesian coordinates:
            Coordinates               Weight
  0.000000  0.000000  0.000000      1.000000
 


--------------------------------------------------------------------------------------------------------




 Dimension of arrays:
   k-points           NKPTS =      1   k-points in BZ     NKDIM =      1   number of bands    NBANDS=    280
   number of dos      NEDOS =    301   number of ions     NIONS =     51
   non local maximal  LDIM  =      4   non local SUM 2l+1 LMDIM =      8
   total plane-waves  NPLWV = 230496
   max r-space proj   IRMAX =   4484   max aug-charges    IRDMAX=   5592
   dimension x,y,z NGX =    98 NGY =   98 NGZ =   24
   dimension x,y,z NGXF=   196 NGYF=  196 NGZF=   48
   support grid    NGXF=   196 NGYF=  196 NGZF=   48
   ions per type =              51
   NGX,Y,Z   is equivalent  to a cutoff of  12.30, 12.30, 13.53 a.u.
   NGXF,Y,Z  is equivalent  to a cutoff of  24.61, 24.61, 27.06 a.u.

 SYSTEM =  Al                                      
 POSCAR =  Na51                                    

 Startparameter for this run:
   NWRITE =      2    write-flag & timer
   PREC   = accura    normal or accurate (medium, high low for compatibility)
   ISTART =      0    job   : 0-new  1-cont  2-samecut
   ICHARG =      2    charge: 1-file 2-atom 10-const
   ISPIN  =      1    spin polarized calculation?
   LNONCOLLINEAR =      F non collinear calculations
   LSORBIT =      F    spin-orbit coupling
   INIWAV =      1    electr: 0-lowe 1-rand  2-diag
   LASPH  =      F    aspherical Exc in radial PAW
   METAGGA=      F    non-selfconsistent MetaGGA calc.

 Electronic Relaxation 1
   ENCUT  =  500.0 eV  36.75 Ry    6.06 a.u.  24.14 24.14  5.38*2*pi/ulx,y,z
   ENINI  =  500.0     initial cutoff
   ENAUG  =  698.0 eV  augmentation charge cutoff
   NELM   =    100;   NELMIN=  6; NELMDL= -5     # of ELM steps 
   EDIFF  = 0.1E-05   stopping-criterion for ELM
   LREAL  =      T    real-space projection
   NLSPLINE    = F    spline interpolate recip. space projectors
   LCOMPAT=      F    compatible to vasp.4.4
   GGA_COMPAT  = T    GGA compatible to vasp.4.4-vasp.4.6
   LMAXPAW     = -100 max onsite density
   LMAXMIX     =    2 max onsite mixed and CHGCAR
   VOSKOWN=      0    Vosko Wilk Nusair interpolation
   ROPT   =   -0.00025
 Ionic relaxation
   EDIFFG = 0.1E-04   stopping-criterion for IOM
   NSW    =      0    number of steps for IOM
   NBLOCK =      1;   KBLOCK =      1    inner block; outer block 
   IBRION =     -1    ionic relax: 0-MD 1-quasi-New 2-CG
   NFREE  =      0    steps in history (QN), initial steepest desc. (CG)
   ISIF   =      2    stress and relaxation
   IWAVPR =     10    prediction:  0-non 1-charg 2-wave 3-comb
   ISYM   =      0    0-nonsym 1-usesym 2-fastsym
   LCORR  =      T    Harris-Foulkes like correction to forces

   POTIM  = 0.5000    time-step for ionic-motion
   TEIN   =    0.0    initial temperature
   TEBEG  =    0.0;   TEEND  =   0.0 temperature during run
   SMASS  =  -3.00    Nose mass-parameter (am)
   estimated Nose-frequenzy (Omega)   =  0.10E-29 period in steps =****** mass=  -0.401E-26a.u.
   SCALEE = 1.0000    scale energy and forces
   NPACO  =    256;   APACO  = 16.0  distance and # of slots for P.C.
   PSTRESS=    0.0 pullay stress

  Mass of Ions in am
   POMASS =  22.99
  Ionic Valenz
   ZVAL   =   9.00
  Atomic Wigner-Seitz radii
   RWIGS  =  -1.00
  virtual crystal weights 
   VCA    =   1.00
   NELECT =     459.0000    total number of electrons
   NUPDOWN=      -1.0000    fix difference up-down

 DOS related values:
   EMIN   =  10.00;   EMAX   =-10.00  energy-range for DOS
   EFERMI =   0.00
   ISMEAR =     1;   SIGMA  =   0.20  broadening in eV -4-tet -1-fermi 0-gaus

 Electronic relaxation 2 (details)
   IALGO  =     38    algorithm
   LDIAG  =      T    sub-space diagonalisation (order eigenvalues)
   LSUBROT=      F    optimize rotation matrix (better conditioning)
   TURBO    =      0    0=normal 1=particle mesh
   IRESTART =      0    0=no restart 2=restart with 2 vectors
   NREBOOT  =      0    no. of reboots
   NMIN     =      0    reboot dimension
   EREF     =   0.00    reference energy to select bands
   IMIX   =      4    mixing-type and parameters
     AMIX     =   0.40;   BMIX     =  1.00
     AMIX_MAG =   1.60;   BMIX_MAG =  1.00
     AMIN     =   0.10
     WC   =   100.;   INIMIX=   1;  MIXPRE=   1;  MAXMIX= -45

 Intra band minimization:
   WEIMIN = 0.0000     energy-eigenvalue tresh-hold
   EBREAK =  0.89E-09  absolut break condition
   DEPER  =   0.30     relativ break condition  

   TIME   =   0.40     timestep for ELM

  volume/ion in A,a.u.               =       8.78        59.26
  Fermi-wavevector in a.u.,A,eV,Ry     =   1.650524  3.119038 37.065400  2.724230
  Thomas-Fermi vector in A             =   2.739459
 
 Write flags
   LWAVE        =      F    write WAVECAR
   LDOWNSAMPLE  =      F    k-point downsampling of WAVECAR
   LCHARG       =      F    write CHGCAR
   LVTOT        =      F    write LOCPOT, total local potential
   LVHAR        =      F    write LOCPOT, Hartree potential only
   LELF         =      F    write electronic localiz. function (ELF)
   LORBIT       =      0    0 simple, 1 ext, 2 COOP (PROOUT), +10 PAW based schemes


 Dipole corrections
   LMONO  =      F    monopole corrections only (constant potential shift)
   LDIPOL =      F    correct potential (dipole corrections)
   IDIPOL =      0    1-x, 2-y, 3-z, 4-all directions 
   EPSILON=  1.0000000 bulk dielectric constant

 Exchange correlation treatment:
   GGA     =    --    GGA type
   LEXCH   =     8    internal setting for exchange type
   VOSKOWN=      0    Vosko Wilk Nusair interpolation
   LHFCALC =     F    Hartree Fock is set to
   LHFONE  =     F    Hartree Fock one center treatment
   AEXX    =    0.0000 exact exchange contribution

 Linear response parameters
   LEPSILON=     F    determine dielectric tensor
   LRPA    =     F    only Hartree local field effects (RPA)
   LNABLA  =     F    use nabla operator in PAW spheres
   LVEL    =     F    velocity operator in full k-point grid
   LINTERFAST=   F  fast interpolation
   KINTER  =     0    interpolate to denser k-point grid
   CSHIFT  =0.1000    complex shift for real part using Kramers Kronig
   OMEGAMAX=  -1.0    maximum frequency
   DEG_THRESHOLD= 0.2000000E-02 threshold for treating states as degnerate
   RTIME   =   -0.100 relaxation time in fs
  (WPLASMAI=    0.000 imaginary part of plasma frequency in eV, 0.658/RTIME)
   DFIELD  = 0.0000000 0.0000000 0.0000000 field for delta impulse in time
 
 Orbital magnetization related:
   ORBITALMAG=     F  switch on orbital magnetization
   LCHIMAG   =     F  perturbation theory with respect to B field
   DQ        =  0.001000  dq finite difference perturbation B field
   LLRAUG    =     F  two centre corrections for induced B field



--------------------------------------------------------------------------------------------------------


 Static calculation
 charge density and potential will be updated during run
 non-spin polarized calculation
 Variant of blocked Davidson
 Davidson routine will perform the subspace rotation
 perform sub-space diagonalisation
    after iterative eigenvector-optimisation
 modified Broyden-mixing scheme, WC =      100.0
 initial mixing is a Kerker type mixing with AMIX =  0.4000 and BMIX =      1.0000
 Hartree-type preconditioning will be used
 using additional bands           50
 real space projection scheme for non local part
 calculate Harris-corrections to forces 
   (improved forces if not selfconsistent)
 use gradient corrections 
 use of overlap-Matrix (Vanderbilt PP)
 Methfessel and Paxton  Order N= 1 SIGMA  =   0.20


--------------------------------------------------------------------------------------------------------


  energy-cutoff  :      500.00
  volume of cell :      447.89
      direct lattice vectors                 reciprocal lattice vectors
    13.242326801  0.000000000  0.000000000     0.075515430  0.043598850 -0.000000011
    -6.621162962 11.468191668  0.000000000     0.000000000  0.087197706 -0.000000011
     0.000000223  0.000000386  2.949254574     0.000000000  0.000000000  0.339068729

  length of vectors
    13.242326801 13.242326801  2.949254574     0.087197706  0.087197706  0.339068729


 
 k-points in units of 2pi/SCALE and weight: Automatic mesh                          
   0.00000000  0.00000000  0.00000000       1.000
 
 k-points in reciprocal lattice and weights: Automatic mesh                          
   0.00000000  0.00000000  0.00000000       1.000
 
 position of ions in fractional coordinates (direct lattice) 
   0.13107263  0.34815807  0.49353882
   0.46226521  0.38383423  0.90964481
   0.61041258  0.53629288  0.83880172
   0.61506837  0.84764102  0.59951867
   0.73838711  0.39857734  0.49158775
   0.89029829  0.54444735  0.57829053
   0.33793235  0.24163711  0.44873573
   0.32206879  0.40728428  0.50394942
   0.91368569  0.77524968  0.82839015
   0.61530696  0.69599807  0.56302725
   0.29208862  0.49298810  0.63858809
   0.51096622  0.65393051  0.77945576
   0.79899379  0.95250459  0.45800543
   0.85316251  0.78006983  0.73091083
   0.31697912  0.76261328  0.97766024
   0.38259550  0.74766294  0.46564371
   0.36221108  0.46339681  0.38322451
   0.38402655  0.45611875  0.95113882
   0.48561930  0.95974736  0.65786319
   0.49553226  0.64827770  0.38818474
   0.84366251  0.45758855  0.79812925
   0.83632906  0.78439631  0.53836158
   0.24696652  0.61154909  0.36800156
   0.50549001  0.67791219  0.78897046
   0.73788552  0.26429561  0.84155361
   0.83559836  0.37849437  0.34308050
   0.35754375  0.89361827  0.30828248
   0.35877706  0.41576669  0.59854581
   0.80244354  0.26169689  0.41347885
   0.89547343  0.83518770  0.74832245
   0.38244560  0.80385968  0.68460224
   0.36103923  0.43181319  0.19003470
   0.20616181  0.89930818  0.95236564
   0.38346694  0.32941892  0.33280208
   0.66834436  0.64878318  0.67055446
   0.49347761  0.29426014  0.30917547
   0.87976474  0.68754230  0.26756093
   0.66469109  0.51776892  0.72641376
   0.27590503  0.92552952  0.29549677
   0.74679026  0.16446468  0.72436005
   0.30768155  0.46797090  0.42447258
   0.56476284  0.60760412  0.53127853
   0.86347561  0.35577190  0.62158934
   0.54998687  0.41896230  0.69291491
   0.91189684  0.20651137  0.48451897
   0.58100628  0.25716012  0.20603217
   0.21351701  0.29199477  0.32892594
   0.60174896  0.81139275  0.38594852
   0.65907016  0.84639332  0.91508781
   0.29797766  0.59313028  0.57639823
   0.24674760  0.74429479  0.79450504
 
 position of ions in cartesian coordinates  (Angst):
  -0.56950456  3.99274371  1.45557162
   3.58003825  4.40188489  2.68277411
   4.53240051  6.15030985  2.47383981
   2.53256709  9.72090996  1.76813317
   7.13891800  4.57096151  1.44981742
   8.18474637  6.24382678  1.70552600
   2.87509203  2.77114091  1.32343591
   1.56824467  4.67081441  1.48627515
   6.96627016  8.89071225  2.44313345
   3.53977936  7.98183953  1.66051070
   0.60377851  5.65368225  1.88335884
   2.43660134  7.49940078  2.29881348
   4.27384885 10.92350537  1.35077461
   6.13288739  8.94599066  2.15564210
  -0.85184544  8.74579566  2.88336892
   0.11605657  8.57434203  1.37330183
   1.72829172  5.31432363  1.13022664
   2.06536866  5.23085762  2.80515050
   0.07608603 11.00656688  1.94020601
   2.26964790  7.43457306  1.14485561
   8.14228650  5.24771354  2.35388633
   5.88132703  8.99560741  1.58776536
  -0.77875465  7.01336227  1.08533028
   2.20529697  7.77442727  2.32687475
   8.02137709  3.03099299  2.48195583
   8.55919377  4.34064606  1.01183174
  -1.18208096 10.24818568  0.90920350
   1.99818415  4.76809236  1.76526396
   8.89348192  3.00119027  1.21945439
   6.32823818  9.57809289  2.20699340
  -0.25801618  9.21881715  2.01906629
   1.92189403  4.95211652  0.56046070
  -3.22440372 10.31343897  2.80876872
   2.89685827  3.77783946  0.98151807
   4.55473543  7.44037008  1.97763580
   4.58644757  3.37463175  0.91183717
   7.09780267  7.88486702  0.78910530
   5.37382437  5.93787345  2.14237911
  -2.47445710 10.61415006  0.87149521
   8.80029348  1.88611271  2.13632218
   0.97590811  5.36678011  1.25187771
   3.45572827  6.96812073  1.56687564
   9.07880255  4.08006064  1.83322519
   4.50908831  4.80474022  2.04358246
  10.70829064  2.36831220  1.42896978
   5.99117598  2.94916167  0.60764132
   0.89411710  3.34865215  0.97008632
   2.59619288  9.30520777  1.13826044
   3.12351457  9.70660120  2.69882692
   0.01870544  6.80213196  1.69994511
  -1.66058453  8.53571564  2.34319763
 


--------------------------------------------------------------------------------------------------------


 k-point  1 :   0.0000 0.0000 0.0000  plane waves:   11411

 maximum and minimum number of plane-waves per node :      1429     1423

 maximum number of plane-waves:     11411
 maximum index in each direction: 
   IXMAX=   24   IYMAX=   24   IZMAX=    5
   IXMIN=  -24   IYMIN=  -24   IZMIN=   -5


 real space projection operators:
  total allocation   :      13713.31 KBytes
  max/ min on nodes  :       1731.56       1700.75


 parallel 3D FFT for wavefunctions:
    minimum data exchange during FFTs selected (reduces bandwidth)
 parallel 3D FFT for charge:
    minimum data exchange during FFTs selected (reduces bandwidth)


 total amount of memory used by VASP MPI-rank0    42108. kBytes
=======================================================================

   base      :      30000. kBytes
   nonlr-proj:       6002. kBytes
   fftplans  :       2158. kBytes
   grid      :       3099. kBytes
   one-center:         21. kBytes
   wavefun   :        828. kBytes
 
     INWAV:  cpu time    0.0000: real time    0.0000
 Broyden mixing: mesh for mixing (old mesh)
   NGX = 49   NGY = 49   NGZ = 11
  (NGX  =196   NGY  =196   NGZ  = 48)
  gives a total of  26411 points

 initial charge density was supplied:
 charge density of overlapping atoms calculated
 number of electron     459.0000000 magnetization 
 keeping initial charge density in first step


--------------------------------------------------------------------------------------------------------


 Maximum index for non-local projection operator          665
 Maximum index for augmentation-charges          342 (set IRDMAX)


--------------------------------------------------------------------------------------------------------


 First call to EWALD:  gamma=   0.232
 Maximum number of real-space cells 2x 2x 6
 Maximum number of reciprocal cells 4x 4x 1

    FEWALD:  cpu time    0.0042: real time    0.0135


--------------------------------------- Iteration      1(   1)  ---------------------------------------


    POTLOK:  cpu time    0.0446: real time    0.2212
    SETDIJ:  cpu time    0.0127: real time    0.0535
     EDDAV:  cpu time    1.8665: real time    7.5612
       DOS:  cpu time    0.0010: real time    0.0045
    --------------------------------------------
      LOOP:  cpu time    1.9248: real time    7.8404

 eigenvalue-minimisations  :   760
 total energy-change (2. order) : 0.1183723E+05  (-0.3694085E+05)
 number of electron     459.0000000 magnetization 
 augmentation part      459.0000000 magnetization 

 Free energy of the ion-electron system (eV)
  ---------------------------------------------------
  alpha Z        PSCENC =      2030.01064227
  Ewald energy   TEWEN  =     32010.71755199
  -Hartree energ DENC   =    -83085.84549388
  -exchange      EXHF   =         0.00000000
  -V(xc)+E(xc)   XCENC  =      3138.71799203
  PAW double counting   =     49777.24190241   -51976.56791472
  entropy T*S    EENTRO =        -0.04891783
  eigenvalues    EBANDS =     -6685.66029834
  atomic energy  EATOM  =     66628.66618161
  Solvation  Ediel_sol  =         0.00000000
  ---------------------------------------------------
  free energy    TOTEN  =     11837.23164555 eV

  energy without entropy =    11837.28056338  energy(sigma->0) =    11837.24795149


--------------------------------------------------------------------------------------------------------




--------------------------------------- Iteration      1(   2)  ---------------------------------------


     EDDAV:  cpu time    1.7156: real time    6.9759
       DOS:  cpu time    0.0010: real time    0.0040
    --------------------------------------------
      LOOP:  cpu time    1.7166: real time    6.9799

 eigenvalue-minimisations  :   592
 total energy-change (2. order) :-0.7744956E+04  (-0.7592635E+04)
 number of electron     459.0000000 magnetization 
 augmentation part      459.0000000 magnetization 

 Free energy of the ion-electron system (eV)
  ---------------------------------------------------
  alpha Z        PSCENC =      2030.01064227
  Ewald energy   TEWEN  =     32010.71755199
  -Hartree energ DENC   =    -83085.84549388
  -exchange      EXHF   =         0.00000000
  -V(xc)+E(xc)   XCENC  =      3138.71799203
  PAW double counting   =     49777.24190241   -51976.56791472
  entropy T*S    EENTRO =        -0.02792936
  eigenvalues    EBANDS =    -14430.63766481
  atomic energy  EATOM  =     66628.66618161
  Solvation  Ediel_sol  =         0.00000000
  ---------------------------------------------------
  free energy    TOTEN  =      4092.27526755 eV

  energy without entropy =     4092.30319691  energy(sigma->0) =     4092.28457734


--------------------------------------------------------------------------------------------------------




--------------------------------------- Iteration      1(   3)  ---------------------------------------


     EDDAV:  cpu time    2.0842: real time    8.4034
       DOS:  cpu time    0.0011: real time    0.0043
    --------------------------------------------
      LOOP:  cpu time    2.0852: real time    8.4077

 eigenvalue-minimisations  :  1024
 total energy-change (2. order) :-0.9829704E+03  (-0.9686738E+03)
 number of electron     459.0000000 magnetization 
 augmentation part      459.0000000 magnetization 

 Free energy of the ion-electron system (eV)
  ---------------------------------------------------
  alpha Z        PSCENC =      2030.01064227
  Ewald energy   TEWEN  =     32010.71755199
  -Hartree energ DENC   =    -83085.84549388
  -exchange      EXHF   =         0.00000000
  -V(xc)+E(xc)   XCENC  =      3138.71799203
  PAW double counting   =     49777.24190241   -51976.56791472
  entropy T*S    EENTRO =         0.00203250
  eigenvalues    EBANDS =    -15413.63802899
  atomic energy  EATOM  =     66628.66618161
  Solvation  Ediel_sol  =         0.00000000
  ---------------------------------------------------
  free energy    TOTEN  =      3109.30486522 eV

  energy without entropy =     3109.30283272  energy(sigma->0) =     3109.30418772


--------------------------------------------------------------------------------------------------------




--------------------------------------- Iteration      1(   4)  ---------------------------------------


Error EDDDAV: Call to ZHEGV failed. Returncode =   9 2  16
