1.324232680093300019e+01 0.000000000000000000e+00 0.000000000000000000e+00 -6.621162961853699791e+00 1.146819166805670065e+01 0.000000000000000000e+00 2.226625255887360047e-07 3.856627902293807934e-07 2.949254574221099823e+00
8.288455313099229116e+00 0.000000000000000000e+00 0.000000000000000000e+00 -4.144227382019109562e+00 7.178013017776289750e+00 0.000000000000000000e+00 5.664349123315724249e-07 9.810940040113333786e-07 7.502657897979600143e+00
