 vasp.5.4.4.18Apr17-6-g9f103f2a35 (build Nov 07 2022 11:18:25) complex          
  
 executed on             LinuxIFC date 2023.02.07  15:07:55
 running on   64 total cores
 distrk:  each k-point on   64 cores,    1 groups
 distr:  one band on NCORES_PER_BAND=   8 cores,    8 groups


--------------------------------------------------------------------------------------------------------


 INCAR:
 POTCAR:    PAW_PBE Na_sv 28Sep2000               
 POTCAR:    PAW_PBE Na_sv 28Sep2000               
   VRHFIN =Na: s1p0                                                             
   LEXCH  = PE                                                                  
   EATOM  =  1307.8686 eV,   96.1256 Ry                                         
                                                                                
   TITEL  = PAW_PBE Na_sv 28Sep2000                                             
   LULTRA =        F    use ultrasoft PP ?                                      
   IUNSCR =        0    unscreen: 0-lin 1-nonlin 2-no                           
   RPACOR =    0.000    partial core radius                                     
   POMASS =   22.990; ZVAL   =    9.000    mass and valenz                      
   RCORE  =    1.450    outmost cutoff radius                                   
   RWIGS  =    1.500; RWIGS  =    0.794    wigner-seitz radius (au A)           
   ENMAX  =  645.640; ENMIN  =  484.230 eV                                      
   RCLOC  =    1.007    cutoff for local pot                                    
   LCOR   =        T    correct aug charges                                     
   LPAW   =        T    paw PP                                                  
   EAUG   =  698.012                                                            
   RMAX   =    1.481    core radius for proj-oper                               
   RAUG   =    1.300    factor for augmentation sphere                          
   RDEP   =    1.539    radius for radial grids                                 
   RDEPT  =    1.250    core radius for aug-charge                              
                                                                                
   Atomic configuration                                                         
    5 entries                                                                   
     n  l   j            E        occ.                                          
     1  0  0.50     -1033.6933   2.0000                                         
     2  0  0.50       -56.7526   2.0000                                         
     3  0  0.50        -2.7440   1.0000                                         
     2  1  1.50       -28.6721   6.0000                                         
     3  2  1.50        -1.3606   0.0000                                         
   Description                                                                  
     l       E           TYP  RCUT    TYP  RCUT                                 
     0    -56.7526473     23  1.200                                             
     0     -2.7439560     23  1.450                                             
     1    -28.6720906     23  1.250                                             
     1     40.8174780     23  1.400                                             
  local pseudopotential read in
  atomic valenz-charges read in
  non local Contribution for L=           0  read in
    real space projection operators read in
  non local Contribution for L=           0  read in
    real space projection operators read in
  non local Contribution for L=           1  read in
    real space projection operators read in
  non local Contribution for L=           1  read in
    real space projection operators read in
    PAW grid and wavefunctions read in
 
   number of l-projection  operators is LMAX  =           4
   number of lm-projection operators is LMMAX =           8
 
 Optimization of the real space projectors (new method)

 maximal supplied QI-value         = 25.89
 optimisation between [QCUT,QGAM] = [ 11.39, 22.78] = [ 36.34,145.35] Ry 
 Optimized for a Real-space Cutoff    1.27 Angstroem

   l    n(q)    QCUT    max X(q) W(low)/X(q) W(high)/X(q)  e(spline) 
   0      9    11.391     6.352    0.32E-04    0.14E-04    0.64E-07
   0      9    11.391    12.451    0.45E-04    0.30E-04    0.14E-06
   1      8    11.391     1.851    0.16E-04    0.21E-04    0.89E-07
   1      8    11.391     2.565    0.19E-03    0.31E-03    0.18E-06
  PAW_PBE Na_sv 28Sep2000               :
 energy of atom  1       EATOM=-1307.8686
 kinetic energy error for atom=    1.4242 (will be added to EATOM!!)
 
 
 POSCAR: Na50                                    
  positions in cartesian coordinates
  No initial velocities read in
 exchange correlation table for  LEXCH =        8
   RHO(1)=    0.500       N(1)  =     2000
   RHO(2)=  100.500       N(2)  =     4000
 


--------------------------------------------------------------------------------------------------------


 ion  position               nearest neighbor table
   1  0.907  0.648  0.417-  14 1.54  27 1.65   7 1.82
   2  0.514  0.878  0.411-  12 1.36  32 1.45  40 1.76  48 1.88
   3  0.353  0.469  0.820-  49 1.55  28 1.84   5 1.87
   4  0.209  0.069  0.858-  28 1.88
   5  0.178  0.410  0.570-  10 1.03  47 1.39   3 1.87
   6  0.517  0.149  0.596-  48 1.02  16 1.42  30 1.43  38 1.63  34 1.70
   7  0.698  0.493  0.166-  14 1.62  46 1.69   1 1.82
   8  0.778  0.969  0.162-  26 1.90
   9  0.283  0.883  0.642-  35 1.26  31 1.74  48 1.75
  10  0.276  0.559  0.638-   5 1.03  47 1.27  17 1.31  35 1.44  31 1.62
  11  0.227  0.722  0.231-  32 0.60  19 1.09  36 1.10  40 1.44  20 1.82  43 1.84  12 1.84
  12  0.453  0.769  0.216-   2 1.36  32 1.56  36 1.61  11 1.84
  13  0.707  0.146  0.330-  33 0.91  29 1.19  21 1.28  37 1.73
  14  0.697  0.515  0.367-  27 1.39   1 1.54   7 1.62
  15  0.970  0.326  0.765-  23 1.20  43 1.74
  16  0.571  0.226  0.798-  34 1.37   6 1.42  48 1.67  30 1.80
  17  0.398  0.744  0.779-  35 1.00  31 1.16  10 1.31
  18  0.141  0.661  0.784-  31 1.09  39 1.14  47 1.54
  19  0.218  0.841  0.329-  11 1.09  32 1.28  40 1.60  36 1.85  48 1.89
  20  0.290  0.569  0.326-  40 1.18  32 1.51  11 1.82
  21  0.610  0.202  0.227-  29 0.83  44 0.83  13 1.28  37 1.37  33 1.62  22 1.78
  22  0.839  0.369  0.267-  37 1.02  29 1.07  21 1.78
  23  0.795  0.216  0.658-  30 1.16  15 1.20  38 1.64  34 1.64  33 1.73
  24  0.682  0.448  0.648-  38 0.94  30 1.44  34 1.76
  25  0.282  0.238  0.497-  41 0.98  49 1.62
  26  0.735  0.749  0.204-  50 0.83   8 1.90
  27  0.767  0.711  0.496-  14 1.39   1 1.65  50 1.79
  28  0.228  0.315  0.904-  46 1.74   3 1.84   4 1.88
  29  0.727  0.247  0.256-  37 0.78  21 0.83  22 1.07  13 1.19  44 1.38  33 1.61
  30  0.716  0.304  0.690-  34 0.79  38 0.87  23 1.16   6 1.43  24 1.44  16 1.80
  31  0.251  0.741  0.755-  35 1.06  18 1.09  17 1.16  47 1.52  10 1.62  39 1.65   9 1.74
  32  0.304  0.741  0.294-  11 0.60  40 1.04  19 1.28   2 1.45  36 1.45  20 1.51  12 1.56
  33  0.727  0.233  0.446-  13 0.91  38 1.48  29 1.61  21 1.62  23 1.73
  34  0.732  0.343  0.798-  30 0.79  16 1.37  38 1.55  23 1.64   6 1.70  24 1.76
  35  0.315  0.752  0.665-  17 1.00  31 1.06   9 1.26  10 1.44  47 1.73
  36  0.234  0.732  0.104-  11 1.10  39 1.33  32 1.45  12 1.61  43 1.65  19 1.85
  37  0.747  0.221  0.168-  29 0.78  22 1.02  21 1.37  44 1.50  13 1.73
  38  0.676  0.326  0.593-  30 0.87  24 0.94  33 1.48  34 1.55   6 1.63  23 1.64
  39  0.250  0.720  0.946-  18 1.14  36 1.33  31 1.65
  40  0.311  0.726  0.416-  32 1.04  20 1.18  11 1.44  19 1.60   2 1.76
  41  0.180  0.163  0.518-  25 0.98  49 1.48
  42  0.472  0.482  0.462-
  43  0.144  0.492  0.013-  36 1.65  15 1.74  11 1.84
  44  0.533  0.143  0.106-  21 0.83  29 1.38  37 1.50
  45  0.198  0.200  0.200-
  46  0.476  0.483  0.080-   7 1.69  28 1.74
  47  0.102  0.537  0.576-  10 1.27   5 1.39  31 1.52  18 1.54  35 1.73
  48  0.446  0.015  0.583-   6 1.02  16 1.67   9 1.75   2 1.88  19 1.89
  49  0.354  0.275  0.720-  41 1.48   3 1.55  25 1.62
  50  0.715  0.765  0.298-  26 0.83  27 1.79
 

 ----------------------------------------------------------------------------- 
|                                                                             |
|           W    W    AA    RRRRR   N    N  II  N    N   GGGG   !!!           |
|           W    W   A  A   R    R  NN   N  II  NN   N  G    G  !!!           |
|           W    W  A    A  R    R  N N  N  II  N N  N  G       !!!           |
|           W WW W  AAAAAA  RRRRR   N  N N  II  N  N N  G  GGG   !            |
|           WW  WW  A    A  R   R   N   NN  II  N   NN  G    G                |
|           W    W  A    A  R    R  N    N  II  N    N   GGGG   !!!           |
|                                                                             |
|      The distance between some ions is very small                           |
|      please check the nearest neigbor list in the OUTCAR file               |
|          I HOPE YOU KNOW, WHAT YOU ARE  DOING                               |
|                                                                             |
 ----------------------------------------------------------------------------- 


IMPORTANT INFORMATION: All symmetrisations will be switched off!
NOSYMM: (Re-)initialisation of all symmetry stuff for point group C_1.

 
 
 KPOINTS: Automatic mesh                          

Automatic generation of k-mesh.
Space group operators:
 irot       det(A)        alpha          n_x          n_y          n_z        tau_x        tau_y        tau_z
    1     1.000000     0.000000     1.000000     0.000000     0.000000     0.000000     0.000000     0.000000
 
 Subroutine IBZKPT returns following result:
 ===========================================
 
 Found      1 irreducible k-points:
 
 Following reciprocal coordinates:
            Coordinates               Weight
  0.000000  0.000000  0.000000      1.000000
 
 Following cartesian coordinates:
            Coordinates               Weight
  0.000000  0.000000  0.000000      1.000000
 


--------------------------------------------------------------------------------------------------------




 Dimension of arrays:
   k-points           NKPTS =      1   k-points in BZ     NKDIM =      1   number of bands    NBANDS=    272
   number of dos      NEDOS =    301   number of ions     NIONS =     50
   non local maximal  LDIM  =      4   non local SUM 2l+1 LMDIM =      8
   total plane-waves  NPLWV = 216000
   max r-space proj   IRMAX =   4296   max aug-charges    IRDMAX=   5363
   dimension x,y,z NGX =    60 NGY =   60 NGZ =   60
   dimension x,y,z NGXF=   120 NGYF=  120 NGZF=  120
   support grid    NGXF=   120 NGYF=  120 NGZF=  120
   ions per type =              50
   NGX,Y,Z   is equivalent  to a cutoff of  12.03, 12.03, 12.03 a.u.
   NGXF,Y,Z  is equivalent  to a cutoff of  24.07, 24.07, 24.07 a.u.

 SYSTEM =  Al                                      
 POSCAR =  Na50                                    

 Startparameter for this run:
   NWRITE =      2    write-flag & timer
   PREC   = accura    normal or accurate (medium, high low for compatibility)
   ISTART =      0    job   : 0-new  1-cont  2-samecut
   ICHARG =      2    charge: 1-file 2-atom 10-const
   ISPIN  =      1    spin polarized calculation?
   LNONCOLLINEAR =      F non collinear calculations
   LSORBIT =      F    spin-orbit coupling
   INIWAV =      1    electr: 0-lowe 1-rand  2-diag
   LASPH  =      F    aspherical Exc in radial PAW
   METAGGA=      F    non-selfconsistent MetaGGA calc.

 Electronic Relaxation 1
   ENCUT  =  500.0 eV  36.75 Ry    6.06 a.u.  15.11 15.11 15.11*2*pi/ulx,y,z
   ENINI  =  500.0     initial cutoff
   ENAUG  =  698.0 eV  augmentation charge cutoff
   NELM   =    100;   NELMIN=  6; NELMDL= -5     # of ELM steps 
   EDIFF  = 0.1E-05   stopping-criterion for ELM
   LREAL  =      T    real-space projection
   NLSPLINE    = F    spline interpolate recip. space projectors
   LCOMPAT=      F    compatible to vasp.4.4
   GGA_COMPAT  = T    GGA compatible to vasp.4.4-vasp.4.6
   LMAXPAW     = -100 max onsite density
   LMAXMIX     =    2 max onsite mixed and CHGCAR
   VOSKOWN=      0    Vosko Wilk Nusair interpolation
   ROPT   =   -0.00025
 Ionic relaxation
   EDIFFG = 0.1E-04   stopping-criterion for IOM
   NSW    =      0    number of steps for IOM
   NBLOCK =      1;   KBLOCK =      1    inner block; outer block 
   IBRION =     -1    ionic relax: 0-MD 1-quasi-New 2-CG
   NFREE  =      0    steps in history (QN), initial steepest desc. (CG)
   ISIF   =      2    stress and relaxation
   IWAVPR =     10    prediction:  0-non 1-charg 2-wave 3-comb
   ISYM   =      0    0-nonsym 1-usesym 2-fastsym
   LCORR  =      T    Harris-Foulkes like correction to forces

   POTIM  = 0.5000    time-step for ionic-motion
   TEIN   =    0.0    initial temperature
   TEBEG  =    0.0;   TEEND  =   0.0 temperature during run
   SMASS  =  -3.00    Nose mass-parameter (am)
   estimated Nose-frequenzy (Omega)   =  0.10E-29 period in steps =****** mass=  -0.157E-26a.u.
   SCALEE = 1.0000    scale energy and forces
   NPACO  =    256;   APACO  = 16.0  distance and # of slots for P.C.
   PSTRESS=    0.0 pullay stress

  Mass of Ions in am
   POMASS =  22.99
  Ionic Valenz
   ZVAL   =   9.00
  Atomic Wigner-Seitz radii
   RWIGS  =  -1.00
  virtual crystal weights 
   VCA    =   1.00
   NELECT =     450.0000    total number of electrons
   NUPDOWN=      -1.0000    fix difference up-down

 DOS related values:
   EMIN   =  10.00;   EMAX   =-10.00  energy-range for DOS
   EFERMI =   0.00
   ISMEAR =     1;   SIGMA  =   0.20  broadening in eV -4-tet -1-fermi 0-gaus

 Electronic relaxation 2 (details)
   IALGO  =     38    algorithm
   LDIAG  =      T    sub-space diagonalisation (order eigenvalues)
   LSUBROT=      F    optimize rotation matrix (better conditioning)
   TURBO    =      0    0=normal 1=particle mesh
   IRESTART =      0    0=no restart 2=restart with 2 vectors
   NREBOOT  =      0    no. of reboots
   NMIN     =      0    reboot dimension
   EREF     =   0.00    reference energy to select bands
   IMIX   =      4    mixing-type and parameters
     AMIX     =   0.40;   BMIX     =  1.00
     AMIX_MAG =   1.60;   BMIX_MAG =  1.00
     AMIN     =   0.10
     WC   =   100.;   INIMIX=   1;  MIXPRE=   1;  MAXMIX= -45

 Intra band minimization:
   WEIMIN = 0.0000     energy-eigenvalue tresh-hold
   EBREAK =  0.92E-09  absolut break condition
   DEPER  =   0.30     relativ break condition  

   TIME   =   0.40     timestep for ELM

  volume/ion in A,a.u.               =       8.77        59.15
  Fermi-wavevector in a.u.,A,eV,Ry     =   1.651561  3.120997 37.111967  2.727653
  Thomas-Fermi vector in A             =   2.740319
 
 Write flags
   LWAVE        =      F    write WAVECAR
   LDOWNSAMPLE  =      F    k-point downsampling of WAVECAR
   LCHARG       =      F    write CHGCAR
   LVTOT        =      F    write LOCPOT, total local potential
   LVHAR        =      F    write LOCPOT, Hartree potential only
   LELF         =      F    write electronic localiz. function (ELF)
   LORBIT       =      0    0 simple, 1 ext, 2 COOP (PROOUT), +10 PAW based schemes


 Dipole corrections
   LMONO  =      F    monopole corrections only (constant potential shift)
   LDIPOL =      F    correct potential (dipole corrections)
   IDIPOL =      0    1-x, 2-y, 3-z, 4-all directions 
   EPSILON=  1.0000000 bulk dielectric constant

 Exchange correlation treatment:
   GGA     =    --    GGA type
   LEXCH   =     8    internal setting for exchange type
   VOSKOWN=      0    Vosko Wilk Nusair interpolation
   LHFCALC =     F    Hartree Fock is set to
   LHFONE  =     F    Hartree Fock one center treatment
   AEXX    =    0.0000 exact exchange contribution

 Linear response parameters
   LEPSILON=     F    determine dielectric tensor
   LRPA    =     F    only Hartree local field effects (RPA)
   LNABLA  =     F    use nabla operator in PAW spheres
   LVEL    =     F    velocity operator in full k-point grid
   LINTERFAST=   F  fast interpolation
   KINTER  =     0    interpolate to denser k-point grid
   CSHIFT  =0.1000    complex shift for real part using Kramers Kronig
   OMEGAMAX=  -1.0    maximum frequency
   DEG_THRESHOLD= 0.2000000E-02 threshold for treating states as degnerate
   RTIME   =   -0.100 relaxation time in fs
  (WPLASMAI=    0.000 imaginary part of plasma frequency in eV, 0.658/RTIME)
   DFIELD  = 0.0000000 0.0000000 0.0000000 field for delta impulse in time
 
 Orbital magnetization related:
   ORBITALMAG=     F  switch on orbital magnetization
   LCHIMAG   =     F  perturbation theory with respect to B field
   DQ        =  0.001000  dq finite difference perturbation B field
   LLRAUG    =     F  two centre corrections for induced B field



--------------------------------------------------------------------------------------------------------


 Static calculation
 charge density and potential will be updated during run
 non-spin polarized calculation
 Variant of blocked Davidson
 Davidson routine will perform the subspace rotation
 perform sub-space diagonalisation
    after iterative eigenvector-optimisation
 modified Broyden-mixing scheme, WC =      100.0
 initial mixing is a Kerker type mixing with AMIX =  0.4000 and BMIX =      1.0000
 Hartree-type preconditioning will be used
 using additional bands           47
 real space projection scheme for non local part
 calculate Harris-corrections to forces 
   (improved forces if not selfconsistent)
 use gradient corrections 
 use of overlap-Matrix (Vanderbilt PP)
 Methfessel and Paxton  Order N= 1 SIGMA  =   0.20


--------------------------------------------------------------------------------------------------------


  energy-cutoff  :      500.00
  volume of cell :      438.28
      direct lattice vectors                 reciprocal lattice vectors
     8.288162860  0.000000000  0.000000000     0.120654000  0.042657560  0.073884952
    -2.762716867  7.814156327  0.000000000     0.000000000  0.127972868  0.073884952
    -2.762716867 -3.907069496  6.767262893     0.000000000  0.000000000  0.147770231

  length of vectors
     8.288162860  8.288162860  8.288162860     0.147770231  0.147770231  0.147770231


 
 k-points in units of 2pi/SCALE and weight: Automatic mesh                          
   0.00000000  0.00000000  0.00000000       1.000
 
 k-points in reciprocal lattice and weights: Automatic mesh                          
   0.00000000  0.00000000  0.00000000       1.000
 
 position of ions in fractional coordinates (direct lattice) 
   0.90668039  0.64835297  0.41692328
   0.51448392  0.87754381  0.41091404
   0.35254116  0.46887445  0.81991640
   0.20949981  0.06940433  0.85823098
   0.17781649  0.41005373  0.56973941
   0.51712785  0.14850405  0.59580630
   0.69756161  0.49331974  0.16586685
   0.77782803  0.96875072  0.16232698
   0.28267526  0.88326992  0.64208342
   0.27551373  0.55941430  0.63822733
   0.22702491  0.72171866  0.23106670
   0.45324334  0.76905600  0.21639899
   0.70727106  0.14644567  0.33003399
   0.69667840  0.51494694  0.36713756
   0.96989901  0.32636011  0.76472944
   0.57081430  0.22578731  0.79792149
   0.39796827  0.74411595  0.77914206
   0.14094241  0.66089675  0.78446219
   0.21834608  0.84077825  0.32908645
   0.28972781  0.56928394  0.32636458
   0.60973480  0.20169259  0.22725235
   0.83879026  0.36880812  0.26703859
   0.79514526  0.21554013  0.65807078
   0.68178929  0.44815804  0.64825845
   0.28196598  0.23808686  0.49693569
   0.73545166  0.74937654  0.20415063
   0.76680680  0.71137822  0.49611041
   0.22849732  0.31482416  0.90446243
   0.72669717  0.24690732  0.25593798
   0.71621673  0.30397984  0.69006832
   0.25080876  0.74137307  0.75482605
   0.30379419  0.74082822  0.29395864
   0.72687889  0.23319488  0.44570708
   0.73238978  0.34324573  0.79818284
   0.31517579  0.75236822  0.66520168
   0.23363451  0.73173666  0.10371183
   0.74695627  0.22073128  0.16794692
   0.67616598  0.32584087  0.59309811
   0.24955763  0.72044294  0.94581647
   0.31055592  0.72623087  0.41577059
   0.17996191  0.16267676  0.51825722
   0.47215792  0.48197522  0.46172275
   0.14368754  0.49154409  0.01321193
   0.53296034  0.14270282  0.10630037
   0.19821143  0.20000000  0.20000000
   0.47603821  0.48312548  0.08020349
   0.10244001  0.53708130  0.57585723
   0.44622182  0.01471330  0.58291470
   0.35391436  0.27486602  0.71975138
   0.71513214  0.76489566  0.29806045
 
 position of ions in cartesian coordinates  (Angst):
   4.57165810  3.43738321  2.82142946
   0.70448226  5.25179478  2.78076334
  -0.63864568  0.46038792  5.54858982
  -0.82642516 -2.81083183  5.80787468
  -1.23311904  0.97821248  3.85557637
   2.22972106 -1.16742275  4.03197785
   3.96035834  3.20682426  1.12246460
   3.32191798  6.93574681  1.09850932
  -1.87126080  4.39334470  4.34514731
  -1.02524204  1.87775226  4.31905210
  -0.75065674  4.73682881  1.56368911
   1.03402147  5.16403792  1.46442887
   4.54559932 -0.14511635  2.23342675
   3.33723427  2.58944395  2.48451639
   5.02430949 -0.43762216  5.17512514
   1.90278435 -1.35319737  5.39974447
  -0.90990479  2.77047617  5.27265918
  -2.82496384  2.09940222  5.30866186
  -1.42231701  5.28420903  2.22701450
  -0.07311198  3.17334460  2.20859490
   3.86852789  0.68816666  1.53787642
   5.19536585  1.83858596  1.80712036
   4.17675382 -0.88686402  4.45333794
   2.62169235  0.96918619  4.38693533
   0.30632075 -0.08111433  3.36289448
   3.46121756  5.05811471  1.38154101
   3.01947048  3.62048276  3.35730954
  -1.47472058 -1.07371235  6.12073502
   4.63376533  0.92940489  1.73199962
   3.18984731 -0.32079895  4.66987377
  -2.05483068  2.84404726  5.10810630
  -0.34092734  4.64043072  1.98929537
   4.14887675  0.08081275  3.01621695
   2.91672183 -0.43638005  5.40151314
  -1.30411602  3.28013368  4.50159467
  -0.37170678  5.31269536  0.70184520
   5.11708736  1.06864848  1.13654094
   3.06540555  0.22889593  4.01365082
  -2.53502867  1.93428308  6.40058867
  -0.58108865  4.05043695  2.81362886
  -0.38967418 -0.75368534  3.50718285
   1.30615145  1.96224680  3.12459926
  -0.20359226  3.78938244  0.08940862
   3.72933683  0.69977921  0.71936254
   0.53772189  0.78141738  1.35345260
   2.38916374  3.46185743  0.54275813
  -2.22569454  1.94692303  3.89697726
   2.04728213 -2.16251622  3.94473705
   0.18545363 -0.66427260  4.87074679
   2.99048482  4.81247137  2.01705344
 


--------------------------------------------------------------------------------------------------------


 k-point  1 :   0.0000 0.0000 0.0000  plane waves:   11057

 maximum and minimum number of plane-waves per node :      1384     1378

 maximum number of plane-waves:     11057
 maximum index in each direction: 
   IXMAX=   15   IYMAX=   15   IZMAX=   15
   IXMIN=  -15   IYMIN=  -15   IZMIN=  -15


 real space projection operators:
  total allocation   :      12876.69 KBytes
  max/ min on nodes  :       1655.62       1563.69


 parallel 3D FFT for wavefunctions:
    minimum data exchange during FFTs selected (reduces bandwidth)
 parallel 3D FFT for charge:
    minimum data exchange during FFTs selected (reduces bandwidth)


 total amount of memory used by VASP MPI-rank0    40820. kBytes
=======================================================================

   base      :      30000. kBytes
   nonlr-proj:       5631. kBytes
   fftplans  :       1828. kBytes
   grid      :       2557. kBytes
   one-center:         21. kBytes
   wavefun   :        783. kBytes
 
     INWAV:  cpu time    0.0000: real time    0.0002
 Broyden mixing: mesh for mixing (old mesh)
   NGX = 31   NGY = 31   NGZ = 31
  (NGX  =120   NGY  =120   NGZ  =120)
  gives a total of  29791 points

 initial charge density was supplied:
 charge density of overlapping atoms calculated
 number of electron     450.0000000 magnetization 
 keeping initial charge density in first step


--------------------------------------------------------------------------------------------------------


 Maximum index for non-local projection operator          669
 Maximum index for augmentation-charges          316 (set IRDMAX)


--------------------------------------------------------------------------------------------------------


 First call to EWALD:  gamma=   0.233
 Maximum number of real-space cells 3x 3x 3
 Maximum number of reciprocal cells 3x 3x 3

    FEWALD:  cpu time    0.0033: real time    0.0106


--------------------------------------- Iteration      1(   1)  ---------------------------------------


    POTLOK:  cpu time    0.0480: real time    0.2525
    SETDIJ:  cpu time    0.0049: real time    0.0238
     EDDAV:  cpu time    1.9485: real time    7.8931
       DOS:  cpu time    0.0012: real time    0.0048
    --------------------------------------------
      LOOP:  cpu time    2.0026: real time    8.1743

 eigenvalue-minimisations  :   688
 total energy-change (2. order) : 0.9783928E+04  (-0.3391753E+05)
 number of electron     450.0000000 magnetization 
 augmentation part      450.0000000 magnetization 

 Free energy of the ion-electron system (eV)
  ---------------------------------------------------
  alpha Z        PSCENC =      1993.95823430
  Ewald energy   TEWEN  =     -9687.33432270
  -Hartree energ DENC   =    -44126.89292932
  -exchange      EXHF   =         0.00000000
  -V(xc)+E(xc)   XCENC  =      3016.96442842
  PAW double counting   =     48801.21755138   -50957.41952424
  entropy T*S    EENTRO =        -0.01954090
  eigenvalues    EBANDS =     -4578.76786307
  atomic energy  EATOM  =     65322.22174668
  Solvation  Ediel_sol  =         0.00000000
  ---------------------------------------------------
  free energy    TOTEN  =      9783.92778055 eV

  energy without entropy =     9783.94732145  energy(sigma->0) =     9783.93429418


--------------------------------------------------------------------------------------------------------




--------------------------------------- Iteration      1(   2)  ---------------------------------------


     EDDAV:  cpu time    1.7479: real time    7.0901
       DOS:  cpu time    0.0012: real time    0.0046
    --------------------------------------------
      LOOP:  cpu time    1.7491: real time    7.0947

 eigenvalue-minimisations  :   568
 total energy-change (2. order) :-0.7410990E+04  (-0.7250228E+04)
 number of electron     450.0000000 magnetization 
 augmentation part      450.0000000 magnetization 

 Free energy of the ion-electron system (eV)
  ---------------------------------------------------
  alpha Z        PSCENC =      1993.95823430
  Ewald energy   TEWEN  =     -9687.33432270
  -Hartree energ DENC   =    -44126.89292932
  -exchange      EXHF   =         0.00000000
  -V(xc)+E(xc)   XCENC  =      3016.96442842
  PAW double counting   =     48801.21755138   -50957.41952424
  entropy T*S    EENTRO =         0.00952291
  eigenvalues    EBANDS =    -11989.78653233
  atomic energy  EATOM  =     65322.22174668
  Solvation  Ediel_sol  =         0.00000000
  ---------------------------------------------------
  free energy    TOTEN  =      2372.93817510 eV

  energy without entropy =     2372.92865219  energy(sigma->0) =     2372.93500080


--------------------------------------------------------------------------------------------------------




--------------------------------------- Iteration      1(   3)  ---------------------------------------


     EDDAV:  cpu time    2.2045: real time    8.9135
       DOS:  cpu time    0.0011: real time    0.0045
    --------------------------------------------
      LOOP:  cpu time    2.2056: real time    8.9180

 eigenvalue-minimisations  :  1016
 total energy-change (2. order) :-0.7665195E+03  (-0.7501981E+03)
 number of electron     450.0000000 magnetization 
 augmentation part      450.0000000 magnetization 

 Free energy of the ion-electron system (eV)
  ---------------------------------------------------
  alpha Z        PSCENC =      1993.95823430
  Ewald energy   TEWEN  =     -9687.33432270
  -Hartree energ DENC   =    -44126.89292932
  -exchange      EXHF   =         0.00000000
  -V(xc)+E(xc)   XCENC  =      3016.96442842
  PAW double counting   =     48801.21755138   -50957.41952424
  entropy T*S    EENTRO =         0.00071445
  eigenvalues    EBANDS =    -12756.29720811
  atomic energy  EATOM  =     65322.22174668
  Solvation  Ediel_sol  =         0.00000000
  ---------------------------------------------------
  free energy    TOTEN  =      1606.41869086 eV

  energy without entropy =     1606.41797641  energy(sigma->0) =     1606.41845271


--------------------------------------------------------------------------------------------------------




--------------------------------------- Iteration      1(   4)  ---------------------------------------


     EDDAV:  cpu time    1.9747: real time    7.9429
       DOS:  cpu time    0.0012: real time    0.0048
    --------------------------------------------
      LOOP:  cpu time    1.9759: real time    7.9477

 eigenvalue-minimisations  :   784
 total energy-change (2. order) :-0.6869551E+02  (-0.6764892E+02)
 number of electron     450.0000000 magnetization 
 augmentation part      450.0000000 magnetization 

 Free energy of the ion-electron system (eV)
  ---------------------------------------------------
  alpha Z        PSCENC =      1993.95823430
  Ewald energy   TEWEN  =     -9687.33432270
  -Hartree energ DENC   =    -44126.89292932
  -exchange      EXHF   =         0.00000000
  -V(xc)+E(xc)   XCENC  =      3016.96442842
  PAW double counting   =     48801.21755138   -50957.41952424
  entropy T*S    EENTRO =         0.00571790
  eigenvalues    EBANDS =    -12824.99772606
  atomic energy  EATOM  =     65322.22174668
  Solvation  Ediel_sol  =         0.00000000
  ---------------------------------------------------
  free energy    TOTEN  =      1537.72317635 eV

  energy without entropy =     1537.71745846  energy(sigma->0) =     1537.72127039


--------------------------------------------------------------------------------------------------------




--------------------------------------- Iteration      1(   5)  ---------------------------------------


     EDDAV:  cpu time    2.0353: real time    8.2996
       DOS:  cpu time    0.0015: real time    0.0070
    CHARGE:  cpu time    0.0453: real time    0.1805
    MIXING:  cpu time    0.0019: real time    0.0080
    --------------------------------------------
      LOOP:  cpu time    2.0841: real time    8.4951

 eigenvalue-minimisations  :   832
 total energy-change (2. order) :-0.4040653E+01  (-0.4032933E+01)
 number of electron     449.9999974 magnetization 
 augmentation part       94.1578797 magnetization 

 Broyden mixing:
  rms(total) = 0.10126E+02    rms(broyden)= 0.98471E+01
  rms(prec ) = 0.12023E+02
  weight for this iteration     100.00

 Free energy of the ion-electron system (eV)
  ---------------------------------------------------
  alpha Z        PSCENC =      1993.95823430
  Ewald energy   TEWEN  =     -9687.33432270
  -Hartree energ DENC   =    -44126.89292932
  -exchange      EXHF   =         0.00000000
  -V(xc)+E(xc)   XCENC  =      3016.96442842
  PAW double counting   =     48801.21755138   -50957.41952424
  entropy T*S    EENTRO =         0.00958328
  eigenvalues    EBANDS =    -12829.04224493
  atomic energy  EATOM  =     65322.22174668
  Solvation  Ediel_sol  =         0.00000000
  ---------------------------------------------------
  free energy    TOTEN  =      1533.68252288 eV

  energy without entropy =     1533.67293959  energy(sigma->0) =     1533.67932845


--------------------------------------------------------------------------------------------------------




--------------------------------------- Iteration      1(   6)  ---------------------------------------


    POTLOK:  cpu time    0.0410: real time    0.1709
    SETDIJ:  cpu time    0.0037: real time    0.0118
     EDDAV:  cpu time    1.8455: real time    7.4521
       DOS:  cpu time    0.0014: real time    0.0059
    CHARGE:  cpu time    0.0461: real time    0.1849
    MIXING:  cpu time    0.0023: real time    0.0106
    --------------------------------------------
      LOOP:  cpu time    1.9399: real time    7.8360

 eigenvalue-minimisations  :   648
 total energy-change (2. order) : 0.4481660E+02  (-0.6755607E+01)
 number of electron     449.9999975 magnetization 
 augmentation part       92.1871387 magnetization 

 Broyden mixing:
  rms(total) = 0.55581E+01    rms(broyden)= 0.55342E+01
  rms(prec ) = 0.62777E+01
  weight for this iteration     100.00

 eigenvalues of (default mixing * dielectric matrix)
  average eigenvalue GAMMA=   2.0937
  2.0937

 Free energy of the ion-electron system (eV)
  ---------------------------------------------------
  alpha Z        PSCENC =      1993.95823430
  Ewald energy   TEWEN  =     -9687.33432270
  -Hartree energ DENC   =    -44933.75350096
  -exchange      EXHF   =         0.00000000
  -V(xc)+E(xc)   XCENC  =      3039.97850014
  PAW double counting   =     82156.98539076   -84304.43341960
  entropy T*S    EENTRO =         0.03262355
  eigenvalues    EBANDS =    -12009.15612693
  atomic energy  EATOM  =     65322.22174668
  Solvation  Ediel_sol  =         0.00000000
  ---------------------------------------------------
  free energy    TOTEN  =      1578.49912522 eV

  energy without entropy =     1578.46650168  energy(sigma->0) =     1578.48825071


--------------------------------------------------------------------------------------------------------




--------------------------------------- Iteration      1(   7)  ---------------------------------------


    POTLOK:  cpu time    0.0394: real time    0.1592
    SETDIJ:  cpu time    0.0029: real time    0.0120
     EDDAV:  cpu time    1.8277: real time    7.3551
       DOS:  cpu time    0.0013: real time    0.0061
    CHARGE:  cpu time    0.0467: real time    0.1866
    MIXING:  cpu time    0.0022: real time    0.0095
    --------------------------------------------
      LOOP:  cpu time    1.9201: real time    7.7285

 eigenvalue-minimisations  :   656
 total energy-change (2. order) :-0.4430276E+01  (-0.5280501E+01)
 number of electron     449.9999975 magnetization 
 augmentation part       90.4615372 magnetization 

 Broyden mixing:
  rms(total) = 0.21217E+01    rms(broyden)= 0.21180E+01
  rms(prec ) = 0.27041E+01
  weight for this iteration     100.00

 eigenvalues of (default mixing * dielectric matrix)
  average eigenvalue GAMMA=   1.5555
  0.8976  2.2135

 Free energy of the ion-electron system (eV)
  ---------------------------------------------------
  alpha Z        PSCENC =      1993.95823430
  Ewald energy   TEWEN  =     -9687.33432270
  -Hartree energ DENC   =    -45265.95593311
  -exchange      EXHF   =         0.00000000
  -V(xc)+E(xc)   XCENC  =      3056.27631598
  PAW double counting   =    142355.58209446  -144442.77258682
  entropy T*S    EENTRO =        -0.03514636
  eigenvalues    EBANDS =    -11757.87155367
  atomic energy  EATOM  =     65322.22174668
  Solvation  Ediel_sol  =         0.00000000
  ---------------------------------------------------
  free energy    TOTEN  =      1574.06884875 eV

  energy without entropy =     1574.10399511  energy(sigma->0) =     1574.08056420


--------------------------------------------------------------------------------------------------------




--------------------------------------- Iteration      1(   8)  ---------------------------------------


    POTLOK:  cpu time    0.0380: real time    0.1522
    SETDIJ:  cpu time    0.0036: real time    0.0173
     EDDAV:  cpu time    1.9538: real time    7.9023
       DOS:  cpu time    0.0013: real time    0.0057
    CHARGE:  cpu time    0.0588: real time    0.2351
    MIXING:  cpu time    0.0016: real time    0.0070
    --------------------------------------------
      LOOP:  cpu time    2.0571: real time    8.3196

 eigenvalue-minimisations  :   776
 total energy-change (2. order) :-0.7329866E+00  (-0.9352645E+00)
 number of electron     449.9999974 magnetization 
 augmentation part       89.9521820 magnetization 

 Broyden mixing:
  rms(total) = 0.99001E+00    rms(broyden)= 0.98683E+00
  rms(prec ) = 0.11842E+01
  weight for this iteration     100.00

 eigenvalues of (default mixing * dielectric matrix)
  average eigenvalue GAMMA=   1.5503
  2.6198  1.3334  0.6977

 Free energy of the ion-electron system (eV)
  ---------------------------------------------------
  alpha Z        PSCENC =      1993.95823430
  Ewald energy   TEWEN  =     -9687.33432270
  -Hartree energ DENC   =    -45240.46995061
  -exchange      EXHF   =         0.00000000
  -V(xc)+E(xc)   XCENC  =      3059.35942720
  PAW double counting   =    176913.50482600  -178948.71030126
  entropy T*S    EENTRO =         0.05823824
  eigenvalues    EBANDS =    -11839.25203564
  atomic energy  EATOM  =     65322.22174668
  Solvation  Ediel_sol  =         0.00000000
  ---------------------------------------------------
  free energy    TOTEN  =      1573.33586220 eV

  energy without entropy =     1573.27762396  energy(sigma->0) =     1573.31644945


--------------------------------------------------------------------------------------------------------




--------------------------------------- Iteration      1(   9)  ---------------------------------------


    POTLOK:  cpu time    0.0370: real time    0.1528
    SETDIJ:  cpu time    0.0033: real time    0.0123
     EDDAV:  cpu time    1.9178: real time    7.7781
       DOS:  cpu time    0.0014: real time    0.0075
    CHARGE:  cpu time    0.0481: real time    0.1922
    MIXING:  cpu time    0.0021: real time    0.0089
    --------------------------------------------
      LOOP:  cpu time    2.0097: real time    8.1518

 eigenvalue-minimisations  :   768
 total energy-change (2. order) :-0.2957649E+00  (-0.2906471E+00)
 number of electron     449.9999974 magnetization 
 augmentation part       89.7339467 magnetization 

 Broyden mixing:
  rms(total) = 0.33107E+00    rms(broyden)= 0.32693E+00
  rms(prec ) = 0.41547E+00
  weight for this iteration     100.00

 eigenvalues of (default mixing * dielectric matrix)
  average eigenvalue GAMMA=   1.3987
  2.7181  1.0999  1.0999  0.6768

 Free energy of the ion-electron system (eV)
  ---------------------------------------------------
  alpha Z        PSCENC =      1993.95823430
  Ewald energy   TEWEN  =     -9687.33432270
  -Hartree energ DENC   =    -45176.95577104
  -exchange      EXHF   =         0.00000000
  -V(xc)+E(xc)   XCENC  =      3060.01121890
  PAW double counting   =    201208.86155657  -203199.29477486
  entropy T*S    EENTRO =        -0.00420361
  eigenvalues    EBANDS =    -11948.42358692
  atomic energy  EATOM  =     65322.22174668
  Solvation  Ediel_sol  =         0.00000000
  ---------------------------------------------------
  free energy    TOTEN  =      1573.04009732 eV

  energy without entropy =     1573.04430093  energy(sigma->0) =     1573.04149852


--------------------------------------------------------------------------------------------------------




--------------------------------------- Iteration      1(  10)  ---------------------------------------


    POTLOK:  cpu time    0.0378: real time    0.1542
    SETDIJ:  cpu time    0.0040: real time    0.0144
     EDDAV:  cpu time    1.9991: real time    8.0556
       DOS:  cpu time    0.0013: real time    0.0054
    CHARGE:  cpu time    0.0465: real time    0.1869
    MIXING:  cpu time    0.0019: real time    0.0074
    --------------------------------------------
      LOOP:  cpu time    2.0905: real time    8.4239

 eigenvalue-minimisations  :   800
 total energy-change (2. order) :-0.3797154E-01  (-0.7841662E-01)
 number of electron     449.9999974 magnetization 
 augmentation part       89.4481575 magnetization 

 Broyden mixing:
  rms(total) = 0.16583E+00    rms(broyden)= 0.16252E+00
  rms(prec ) = 0.19519E+00
  weight for this iteration     100.00

 eigenvalues of (default mixing * dielectric matrix)
  average eigenvalue GAMMA=   1.3462
  2.7819  1.2432  1.2432  0.8348  0.6279

 Free energy of the ion-electron system (eV)
  ---------------------------------------------------
  alpha Z        PSCENC =      1993.95823430
  Ewald energy   TEWEN  =     -9687.33432270
  -Hartree energ DENC   =    -45194.32611311
  -exchange      EXHF   =         0.00000000
  -V(xc)+E(xc)   XCENC  =      3060.93898621
  PAW double counting   =    209161.09006007  -211136.85465415
  entropy T*S    EENTRO =         0.00393706
  eigenvalues    EBANDS =    -11946.69574857
  atomic energy  EATOM  =     65322.22174668
  Solvation  Ediel_sol  =         0.00000000
  ---------------------------------------------------
  free energy    TOTEN  =      1573.00212578 eV

  energy without entropy =     1572.99818872  energy(sigma->0) =     1573.00081343


--------------------------------------------------------------------------------------------------------




--------------------------------------- Iteration      1(  11)  ---------------------------------------


    POTLOK:  cpu time    0.0383: real time    0.1543
    SETDIJ:  cpu time    0.0034: real time    0.0154
     EDDAV:  cpu time    2.0231: real time    8.1445
       DOS:  cpu time    0.0015: real time    0.0066
    CHARGE:  cpu time    0.0477: real time    0.1905
    MIXING:  cpu time    0.0019: real time    0.0078
    --------------------------------------------
      LOOP:  cpu time    2.1159: real time    8.5190

 eigenvalue-minimisations  :   832
 total energy-change (2. order) : 0.9459195E-02  (-0.7788813E-02)
 number of electron     449.9999974 magnetization 
 augmentation part       89.4149542 magnetization 

 Broyden mixing:
  rms(total) = 0.74569E-01    rms(broyden)= 0.74234E-01
  rms(prec ) = 0.90503E-01
  weight for this iteration     100.00

 eigenvalues of (default mixing * dielectric matrix)
  average eigenvalue GAMMA=   1.4031
  2.6722  1.8822  1.1501  1.1501  0.6303  0.9335

 Free energy of the ion-electron system (eV)
  ---------------------------------------------------
  alpha Z        PSCENC =      1993.95823430
  Ewald energy   TEWEN  =     -9687.33432270
  -Hartree energ DENC   =    -45208.32126886
  -exchange      EXHF   =         0.00000000
  -V(xc)+E(xc)   XCENC  =      3061.36453699
  PAW double counting   =    211724.90786755  -213692.45203262
  entropy T*S    EENTRO =         0.00707151
  eigenvalues    EBANDS =    -11941.34024788
  atomic energy  EATOM  =     65322.22174668
  Solvation  Ediel_sol  =         0.00000000
  ---------------------------------------------------
  free energy    TOTEN  =      1573.01158498 eV

  energy without entropy =     1573.00451346  energy(sigma->0) =     1573.00922780


--------------------------------------------------------------------------------------------------------




--------------------------------------- Iteration      1(  12)  ---------------------------------------


    POTLOK:  cpu time    0.0427: real time    0.1767
    SETDIJ:  cpu time    0.0038: real time    0.0176
     EDDAV:  cpu time    1.9716: real time    7.9477
       DOS:  cpu time    0.0014: real time    0.0065
    CHARGE:  cpu time    0.0465: real time    0.1888
    MIXING:  cpu time    0.0020: real time    0.0078
    --------------------------------------------
      LOOP:  cpu time    2.0680: real time    8.3452

 eigenvalue-minimisations  :   784
 total energy-change (2. order) : 0.3897557E-02  (-0.1755329E-02)
 number of electron     449.9999974 magnetization 
 augmentation part       89.4446152 magnetization 

 Broyden mixing:
  rms(total) = 0.27820E-01    rms(broyden)= 0.27166E-01
  rms(prec ) = 0.37108E-01
  weight for this iteration     100.00

 eigenvalues of (default mixing * dielectric matrix)
  average eigenvalue GAMMA=   1.3434
  2.3325  2.3325  1.2436  1.0508  1.0508  0.7775  0.6159

 Free energy of the ion-electron system (eV)
  ---------------------------------------------------
  alpha Z        PSCENC =      1993.95823430
  Ewald energy   TEWEN  =     -9687.33432270
  -Hartree energ DENC   =    -45214.10785417
  -exchange      EXHF   =         0.00000000
  -V(xc)+E(xc)   XCENC  =      3061.46040058
  PAW double counting   =    212050.83644562  -214013.23367667
  entropy T*S    EENTRO =         0.00479252
  eigenvalues    EBANDS =    -11940.79028362
  atomic energy  EATOM  =     65322.22174668
  Solvation  Ediel_sol  =         0.00000000
  ---------------------------------------------------
  free energy    TOTEN  =      1573.01548253 eV

  energy without entropy =     1573.01069002  energy(sigma->0) =     1573.01388503


--------------------------------------------------------------------------------------------------------




--------------------------------------- Iteration      1(  13)  ---------------------------------------


    POTLOK:  cpu time    0.0386: real time    0.1595
    SETDIJ:  cpu time    0.0030: real time    0.0102
     EDDAV:  cpu time    2.0282: real time    8.2054
       DOS:  cpu time    0.0014: real time    0.0059
    CHARGE:  cpu time    0.0464: real time    0.1879
    MIXING:  cpu time    0.0024: real time    0.0099
    --------------------------------------------
      LOOP:  cpu time    2.1199: real time    8.5789

 eigenvalue-minimisations  :   808
 total energy-change (2. order) : 0.2981647E-04  (-0.5042653E-03)
 number of electron     449.9999974 magnetization 
 augmentation part       89.4607519 magnetization 

 Broyden mixing:
  rms(total) = 0.10251E-01    rms(broyden)= 0.96817E-02
  rms(prec ) = 0.12398E-01
  weight for this iteration     100.00

 eigenvalues of (default mixing * dielectric matrix)
  average eigenvalue GAMMA=   1.3523
  2.4219  2.4219  1.5891  1.0940  1.0940  0.8676  0.7192  0.6106

 Free energy of the ion-electron system (eV)
  ---------------------------------------------------
  alpha Z        PSCENC =      1993.95823430
  Ewald energy   TEWEN  =     -9687.33432270
  -Hartree energ DENC   =    -45216.16734390
  -exchange      EXHF   =         0.00000000
  -V(xc)+E(xc)   XCENC  =      3061.45358966
  PAW double counting   =    211526.88072674  -213488.70862711
  entropy T*S    EENTRO =         0.00594066
  eigenvalues    EBANDS =    -11939.29443198
  atomic energy  EATOM  =     65322.22174668
  Solvation  Ediel_sol  =         0.00000000
  ---------------------------------------------------
  free energy    TOTEN  =      1573.01551235 eV

  energy without entropy =     1573.00957169  energy(sigma->0) =     1573.01353213


--------------------------------------------------------------------------------------------------------




--------------------------------------- Iteration      1(  14)  ---------------------------------------


    POTLOK:  cpu time    0.0381: real time    0.1597
    SETDIJ:  cpu time    0.0032: real time    0.0105
     EDDAV:  cpu time    2.0305: real time    8.1757
       DOS:  cpu time    0.0013: real time    0.0076
    CHARGE:  cpu time    0.0483: real time    0.1918
    MIXING:  cpu time    0.0022: real time    0.0089
    --------------------------------------------
      LOOP:  cpu time    2.1237: real time    8.5542

 eigenvalue-minimisations  :   840
 total energy-change (2. order) :-0.8496089E-04  (-0.5309876E-04)
 number of electron     449.9999974 magnetization 
 augmentation part       89.4647653 magnetization 

 Broyden mixing:
  rms(total) = 0.43923E-02    rms(broyden)= 0.42486E-02
  rms(prec ) = 0.55124E-02
  weight for this iteration     100.00

 eigenvalues of (default mixing * dielectric matrix)
  average eigenvalue GAMMA=   1.3773
  2.5170  2.5170  1.9101  1.0906  1.0906  1.1081  0.8599  0.6086  0.6934

 Free energy of the ion-electron system (eV)
  ---------------------------------------------------
  alpha Z        PSCENC =      1993.95823430
  Ewald energy   TEWEN  =     -9687.33432270
  -Hartree energ DENC   =    -45217.17921543
  -exchange      EXHF   =         0.00000000
  -V(xc)+E(xc)   XCENC  =      3061.47509483
  PAW double counting   =    211411.58957129  -213373.07984708
  entropy T*S    EENTRO =         0.00565420
  eigenvalues    EBANDS =    -11938.64148870
  atomic energy  EATOM  =     65322.22174668
  Solvation  Ediel_sol  =         0.00000000
  ---------------------------------------------------
  free energy    TOTEN  =      1573.01542739 eV

  energy without entropy =     1573.00977319  energy(sigma->0) =     1573.01354266


--------------------------------------------------------------------------------------------------------




--------------------------------------- Iteration      1(  15)  ---------------------------------------


    POTLOK:  cpu time    0.0380: real time    0.1569
    SETDIJ:  cpu time    0.0037: real time    0.0121
     EDDAV:  cpu time    1.9977: real time    8.0916
       DOS:  cpu time    0.0013: real time    0.0057
    CHARGE:  cpu time    0.0478: real time    0.1900
    MIXING:  cpu time    0.0023: real time    0.0100
    --------------------------------------------
      LOOP:  cpu time    2.0906: real time    8.4662

 eigenvalue-minimisations  :   792
 total energy-change (2. order) :-0.2289566E-04  (-0.5787744E-05)
 number of electron     449.9999974 magnetization 
 augmentation part       89.4655397 magnetization 

 Broyden mixing:
  rms(total) = 0.14332E-02    rms(broyden)= 0.14163E-02
  rms(prec ) = 0.21877E-02
  weight for this iteration     100.00

 eigenvalues of (default mixing * dielectric matrix)
  average eigenvalue GAMMA=   1.3289
  2.5157  2.1871  2.1871  1.2527  1.0908  1.0908  0.8428  0.8428  0.6071  0.6719

 Free energy of the ion-electron system (eV)
  ---------------------------------------------------
  alpha Z        PSCENC =      1993.95823430
  Ewald energy   TEWEN  =     -9687.33432270
  -Hartree energ DENC   =    -45217.57307174
  -exchange      EXHF   =         0.00000000
  -V(xc)+E(xc)   XCENC  =      3061.49330866
  PAW double counting   =    211428.17743767  -213389.35798856
  entropy T*S    EENTRO =         0.00539885
  eigenvalues    EBANDS =    -11938.57533867
  atomic energy  EATOM  =     65322.22174668
  Solvation  Ediel_sol  =         0.00000000
  ---------------------------------------------------
  free energy    TOTEN  =      1573.01540449 eV

  energy without entropy =     1573.01000564  energy(sigma->0) =     1573.01360488


--------------------------------------------------------------------------------------------------------




--------------------------------------- Iteration      1(  16)  ---------------------------------------


    POTLOK:  cpu time    0.0380: real time    0.1528
    SETDIJ:  cpu time    0.0027: real time    0.0131
     EDDAV:  cpu time    1.8454: real time    7.4350
       DOS:  cpu time    0.0014: real time    0.0065
    CHARGE:  cpu time    0.0473: real time    0.1896
    MIXING:  cpu time    0.0023: real time    0.0089
    --------------------------------------------
      LOOP:  cpu time    1.9370: real time    7.8059

 eigenvalue-minimisations  :   672
 total energy-change (2. order) :-0.1735578E-05  (-0.1719364E-05)
 number of electron     449.9999974 magnetization 
 augmentation part       89.4650591 magnetization 

 Broyden mixing:
  rms(total) = 0.78237E-03    rms(broyden)= 0.75186E-03
  rms(prec ) = 0.11179E-02
  weight for this iteration     100.00

 eigenvalues of (default mixing * dielectric matrix)
  average eigenvalue GAMMA=   1.3057
  2.6295  2.0947  2.0947  1.4556  1.2495  0.9998  0.9998  0.8870  0.6949  0.6114
  0.6459

 Free energy of the ion-electron system (eV)
  ---------------------------------------------------
  alpha Z        PSCENC =      1993.95823430
  Ewald energy   TEWEN  =     -9687.33432270
  -Hartree energ DENC   =    -45217.59537578
  -exchange      EXHF   =         0.00000000
  -V(xc)+E(xc)   XCENC  =      3061.49827003
  PAW double counting   =    211463.01030019  -213424.10779888
  entropy T*S    EENTRO =         0.00544124
  eigenvalues    EBANDS =    -11938.64109232
  atomic energy  EATOM  =     65322.22174668
  Solvation  Ediel_sol  =         0.00000000
  ---------------------------------------------------
  free energy    TOTEN  =      1573.01540276 eV

  energy without entropy =     1573.00996152  energy(sigma->0) =     1573.01358901


--------------------------------------------------------------------------------------------------------




--------------------------------------- Iteration      1(  17)  ---------------------------------------


    POTLOK:  cpu time    0.0385: real time    0.1554
    SETDIJ:  cpu time    0.0064: real time    0.0253
     EDDAV:  cpu time    1.6498: real time    6.6415
       DOS:  cpu time    0.0012: real time    0.0048
    --------------------------------------------
      LOOP:  cpu time    1.6958: real time    6.8269

 eigenvalue-minimisations  :   488
 total energy-change (2. order) : 0.3201421E-08  (-0.3461694E-06)
 number of electron     449.9999974 magnetization 
 augmentation part       89.4650591 magnetization 

 Free energy of the ion-electron system (eV)
  ---------------------------------------------------
  alpha Z        PSCENC =      1993.95823430
  Ewald energy   TEWEN  =     -9687.33432270
  -Hartree energ DENC   =    -45217.61753330
  -exchange      EXHF   =         0.00000000
  -V(xc)+E(xc)   XCENC  =      3061.49951739
  PAW double counting   =    211473.85455067  -213434.94198446
  entropy T*S    EENTRO =         0.00549080
  eigenvalues    EBANDS =    -11938.63029660
  atomic energy  EATOM  =     65322.22174668
  Solvation  Ediel_sol  =         0.00000000
  ---------------------------------------------------
  free energy    TOTEN  =      1573.01540276 eV

  energy without entropy =     1573.00991196  energy(sigma->0) =     1573.01357249


--------------------------------------------------------------------------------------------------------




 average (electrostatic) potential at core
  the test charge radii are     0.6719
  (the norm of the test charge is              1.0000)
       1 -86.2632       2 -87.0984       3 -85.8809       4 -81.7434       5 -89.8428
       6 -92.1381       7 -86.3066       8 -82.2631       9 -87.0915      10 -94.2047
      11-115.9528      12 -87.6059      13 -93.9843      14 -86.9816      15 -86.5159
      16 -87.9259      17 -92.9420      18 -90.6945      19 -91.5192      20 -87.1971
      21-101.3284      22 -91.5943      23 -90.7707      24 -89.3048      25 -88.1675
      26 -90.9565      27 -85.7589      28 -85.9299      29-106.9957      30-104.4396
      31 -97.1127      32-117.5567      33 -92.2971      34 -96.2796      35 -95.9401
      36 -93.1081      37 -99.0221      38 -97.4630      39 -89.3076      40 -94.8708
      41 -88.1259      42 -82.5299      43 -86.0098      44 -91.9301      45 -81.5143
      46 -84.9115      47 -91.2120      48 -90.6023      49 -86.9799      50 -91.3138
 
 
 
 E-fermi :  10.9695     XC(G=0): -11.2347     alpha+bet :-20.3828


 k-point     1 :       0.0000    0.0000    0.0000
  band No.  band energies     occupation 
      1    -112.5457      2.00000
      2     -90.4250      2.00000
      3     -83.3549      2.00000
      4     -78.3863      2.00000
      5     -73.7241      2.00000
      6     -72.7068      2.00000
      7     -70.5602      2.00000
      8     -69.8413      2.00000
      9     -69.7999      2.00000
     10     -65.3422      2.00000
     11     -64.9543      2.00000
     12     -64.2766      2.00000
     13     -62.7689      2.00000
     14     -62.6849      2.00000
     15     -62.3689      2.00000
     16     -61.1891      2.00000
     17     -60.9427      2.00000
     18     -59.9231      2.00000
     19     -57.4223      2.00000
     20     -56.4615      2.00000
     21     -55.6765      2.00000
     22     -54.1552      2.00000
     23     -53.6439      2.00000
     24     -53.4685      2.00000
     25     -52.5222      2.00000
     26     -51.8498      2.00000
     27     -51.6229      2.00000
     28     -51.1652      2.00000
     29     -50.3469      2.00000
     30     -50.0817      2.00000
     31     -49.9922      2.00000
     32     -49.4620      2.00000
     33     -49.0547      2.00000
     34     -48.8861      2.00000
     35     -48.7447      2.00000
     36     -48.5243      2.00000
     37     -48.3876      2.00000
     38     -48.1877      2.00000
     39     -48.1488      2.00000
     40     -48.0732      2.00000
     41     -47.8535      2.00000
     42     -47.6793      2.00000
     43     -47.0326      2.00000
     44     -46.8140      2.00000
     45     -45.4309      2.00000
     46     -44.6333      2.00000
     47     -44.5810      2.00000
     48     -44.3536      2.00000
     49     -43.7782      2.00000
     50     -43.7648      2.00000
     51     -43.5005      2.00000
     52     -43.2854      2.00000
     53     -42.4000      2.00000
     54     -41.8235      2.00000
     55     -41.3940      2.00000
     56     -41.3854      2.00000
     57     -40.8697      2.00000
     58     -38.3170      2.00000
     59     -37.6479      2.00000
     60     -37.6200      2.00000
     61     -36.5650      2.00000
     62     -35.1431      2.00000
     63     -34.5098      2.00000
     64     -34.0437      2.00000
     65     -33.7466      2.00000
     66     -33.4635      2.00000
     67     -33.4173      2.00000
     68     -32.6271      2.00000
     69     -32.0259      2.00000
     70     -31.7254      2.00000
     71     -31.5294      2.00000
     72     -31.4546      2.00000
     73     -31.2428      2.00000
     74     -31.0638      2.00000
     75     -30.5320      2.00000
     76     -30.4207      2.00000
     77     -30.3282      2.00000
     78     -30.1295      2.00000
     79     -30.0375      2.00000
     80     -29.9916      2.00000
     81     -29.5524      2.00000
     82     -29.2735      2.00000
     83     -28.9292      2.00000
     84     -28.5366      2.00000
     85     -28.3920      2.00000
     86     -28.2083      2.00000
     87     -28.0855      2.00000
     88     -27.6844      2.00000
     89     -27.6339      2.00000
     90     -27.3824      2.00000
     91     -26.8456      2.00000
     92     -26.4912      2.00000
     93     -26.4275      2.00000
     94     -26.3970      2.00000
     95     -25.6748      2.00000
     96     -25.6508      2.00000
     97     -25.4506      2.00000
     98     -24.9605      2.00000
     99     -24.7707      2.00000
    100     -24.6792      2.00000
    101     -24.5371      2.00000
    102     -23.9749      2.00000
    103     -23.9144      2.00000
    104     -23.7935      2.00000
    105     -23.7352      2.00000
    106     -23.6320      2.00000
    107     -23.3674      2.00000
    108     -23.1835      2.00000
    109     -22.7496      2.00000
    110     -22.7447      2.00000
    111     -22.5216      2.00000
    112     -22.3132      2.00000
    113     -22.2578      2.00000
    114     -22.1420      2.00000
    115     -21.8901      2.00000
    116     -21.8366      2.00000
    117     -21.6657      2.00000
    118     -21.5383      2.00000
    119     -21.4919      2.00000
    120     -21.3452      2.00000
    121     -21.2711      2.00000
    122     -21.1651      2.00000
    123     -21.1497      2.00000
    124     -21.0431      2.00000
    125     -21.0026      2.00000
    126     -20.9225      2.00000
    127     -20.7914      2.00000
    128     -20.7315      2.00000
    129     -20.6241      2.00000
    130     -20.5920      2.00000
    131     -20.4313      2.00000
    132     -20.4162      2.00000
    133     -20.3123      2.00000
    134     -20.2172      2.00000
    135     -20.1324      2.00000
    136     -20.0559      2.00000
    137     -20.0072      2.00000
    138     -19.8901      2.00000
    139     -19.8625      2.00000
    140     -19.8122      2.00000
    141     -19.7517      2.00000
    142     -19.6405      2.00000
    143     -19.6307      2.00000
    144     -19.5694      2.00000
    145     -19.4593      2.00000
    146     -19.4042      2.00000
    147     -19.2900      2.00000
    148     -19.1577      2.00000
    149     -19.0274      2.00000
    150     -18.9852      2.00000
    151     -18.7594      2.00000
    152     -18.6552      2.00000
    153     -18.4974      2.00000
    154     -18.4696      2.00000
    155     -18.4186      2.00000
    156     -18.3047      2.00000
    157     -18.2395      2.00000
    158     -18.1608      2.00000
    159     -18.0758      2.00000
    160     -17.9495      2.00000
    161     -17.5556      2.00000
    162     -17.2244      2.00000
    163     -17.1635      2.00000
    164     -16.7833      2.00000
    165     -16.6420      2.00000
    166     -16.6128      2.00000
    167     -16.5131      2.00000
    168     -16.3887      2.00000
    169     -16.3458      2.00000
    170     -16.2642      2.00000
    171     -16.1388      2.00000
    172     -16.0757      2.00000
    173     -16.0182      2.00000
    174     -16.0003      2.00000
    175     -15.8089      2.00000
    176     -15.5097      2.00000
    177     -15.5087      2.00000
    178     -15.4636      2.00000
    179     -15.4138      2.00000
    180     -15.3376      2.00000
    181     -15.2251      2.00000
    182     -15.1230      2.00000
    183     -15.0289      2.00000
    184     -14.7844      2.00000
    185     -14.6588      2.00000
    186     -13.9299      2.00000
    187     -13.2278      2.00000
    188     -11.8099      2.00000
    189     -11.4320      2.00000
    190     -10.7344      2.00000
    191      -6.6743      2.00000
    192      -5.0204      2.00000
    193      -4.9704      2.00000
    194      -3.8470      2.00000
    195      -3.2333      2.00000
    196      -0.6617      2.00000
    197       1.1667      2.00000
    198       3.3029      2.00000
    199       5.2515      2.00000
    200       5.4854      2.00000
    201       5.6426      2.00000
    202       5.8864      2.00000
    203       6.0673      2.00000
    204       6.1873      2.00000
    205       6.3504      2.00000
    206       6.4510      2.00000
    207       6.5579      2.00000
    208       6.6051      2.00000
    209       6.7736      2.00000
    210       6.9522      2.00000
    211       7.2895      2.00000
    212       7.5640      2.00000
    213       7.7445      2.00000
    214       8.5747      2.00000
    215       8.6269      2.00000
    216       9.0327      2.00000
    217       9.1346      2.00000
    218       9.5467      2.00000
    219       9.8176      2.00000
    220       9.9919      2.00000
    221      10.2957      2.00002
    222      10.4377      2.00111
    223      10.7587      2.05970
    224      10.7832      2.03297
    225      10.8945      1.58774
    226      11.0604      0.31175
    227      11.1109      0.07531
    228      11.2674     -0.05623
    229      11.3862     -0.01211
    230      11.5593     -0.00025
    231      11.7502     -0.00000
    232      11.9697     -0.00000
    233      12.0251     -0.00000
    234      12.1559     -0.00000
    235      12.2864     -0.00000
    236      12.5224     -0.00000
    237      12.7139     -0.00000
    238      12.7754     -0.00000
    239      13.0320     -0.00000
    240      13.2432     -0.00000
    241      13.3959     -0.00000
    242      13.5771     -0.00000
    243      13.7076     -0.00000
    244      14.0745     -0.00000
    245      14.1888     -0.00000
    246      14.3041     -0.00000
    247      14.4100     -0.00000
    248      14.5980     -0.00000
    249      14.7782     -0.00000
    250      14.9514     -0.00000
    251      15.0209     -0.00000
    252      15.3209     -0.00000
    253      15.5108     -0.00000
    254      15.5401     -0.00000
    255      15.8083     -0.00000
    256      15.9703     -0.00000
    257      16.1891     -0.00000
    258      16.3124     -0.00000
    259      16.3881     -0.00000
    260      16.5906      0.00000
    261      16.6868      0.00000
    262      16.8704      0.00000
    263      17.0628      0.00000
    264      17.2047      0.00000
    265      17.3003      0.00000
    266      17.4613      0.00000
    267      17.7166      0.00000
    268      17.8900      0.00000
    269      17.9767      0.00000
    270      18.2115      0.00000
    271      18.2485      0.00000
    272      18.3824      0.00000


--------------------------------------------------------------------------------------------------------


 soft charge-density along one line, spin component           1
         0         1         2         3         4         5         6         7         8         9
 total charge-density along one line
 
 pseudopotential strength for first ion, spin component:           1
-21.047   1.400   0.114   0.108   0.207  -0.225  -0.212  -0.416
  1.400  -2.125   0.023   0.022   0.045   0.029   0.027   0.053
  0.114   0.023 -37.851  -0.032  -0.001  10.407   0.039   0.005
  0.108   0.022  -0.032 -37.856  -0.003   0.039  10.413   0.007
  0.207   0.045  -0.001  -0.003 -37.897   0.005   0.007  10.474
 -0.225   0.029  10.407   0.039   0.005  22.306  -0.022   0.000
 -0.212   0.027   0.039  10.413   0.007  -0.022  22.303  -0.002
 -0.416   0.053   0.005   0.007  10.474   0.000  -0.002  22.275
 total augmentation occupancy for first ion, spin component:           1
  2.021   0.090  -0.007  -0.005  -0.013  -0.006  -0.007  -0.013
  0.090   2.387  -0.090  -0.096  -0.143   0.016   0.000  -0.008
 -0.007  -0.090   2.050   0.000   0.007   0.032   0.006  -0.002
 -0.005  -0.096   0.000   2.050   0.000   0.006   0.033  -0.001
 -0.013  -0.143   0.007   0.000   2.060  -0.002  -0.001   0.035
 -0.006   0.016   0.032   0.006  -0.002   0.014  -0.003   0.000
 -0.007   0.000   0.006   0.033  -0.001  -0.003   0.015   0.003
 -0.013  -0.008  -0.002  -0.001   0.035   0.000   0.003   0.017


------------------------ aborting loop because EDIFF is reached ----------------------------------------


    CHARGE:  cpu time    0.0498: real time    0.2157
    FORLOC:  cpu time    0.0124: real time    0.0464
    FORNL :  cpu time    0.2164: real time    0.8566
    STRESS:  cpu time    0.6771: real time    2.7246
    FORHAR:  cpu time    0.0176: real time    0.0696
    MIXING:  cpu time    0.0021: real time    0.0087
    OFIELD:  cpu time    0.0000: real time    0.0000

  FORCE on cell =-STRESS in cart. coord.  units (eV):
  Direction    XX          YY          ZZ          XY          YZ          ZX
  --------------------------------------------------------------------------------------
  Alpha Z  1993.95823  1993.95823  1993.95823
  Ewald   -9243.28233 -2083.45069  1639.19736  3146.87404 -3720.38899 -4327.01078
  Hartree 10576.52948 16911.06641 17730.08633  2540.45578 -2371.10718 -3032.34688
  E(xc)   -3232.27803 -3231.18009 -3226.07037     1.69418    -1.56712    -2.99427
  Local   -7679.90738-21521.42856-24956.74026 -5590.98762  5798.84973  7293.71508
  n-local -9530.10638 -9144.32787 -9514.17983    88.99880    79.86380  -387.12301
  augment  1449.82063  1463.91399  1383.60059   -13.28770    13.67317    27.22543
  Kinetic 17002.95252 16851.59154 17238.29634    93.42101   -75.56124   -85.32516
  Fock        0.00000     0.00000     0.00000     0.00000     0.00000     0.00000
  -------------------------------------------------------------------------------------
  Total    1337.68674  1240.14296  2288.14841   267.16849  -276.23782  -513.85958
  in kB    4890.03070  4533.45087  8364.52631   976.65773 -1009.81148 -1878.45858
  external pressure =     5929.34 kB  Pullay stress =        0.00 kB


 VOLUME and BASIS-vectors are now :
 -----------------------------------------------------------------------------
  energy-cutoff  :      500.00
  volume of cell :      438.28
      direct lattice vectors                 reciprocal lattice vectors
     8.288162860  0.000000000  0.000000000     0.120654000  0.042657560  0.073884952
    -2.762716867  7.814156327  0.000000000     0.000000000  0.127972868  0.073884952
    -2.762716867 -3.907069496  6.767262893     0.000000000  0.000000000  0.147770231

  length of vectors
     8.288162860  8.288162860  8.288162860     0.147770231  0.147770231  0.147770231


 FORCES acting on ions
    electron-ion (+dipol)            ewald-force                    non-local-force                 convergence-correction
 -----------------------------------------------------------------------------------------------
   -.313E+03 -.687E+03 -.322E+03   0.370E+03 0.717E+03 0.350E+03   -.405E+02 -.227E+02 -.224E+02   0.215E-02 -.268E-02 0.193E-02
   -.104E+04 -.101E+03 -.888E+03   0.109E+04 0.139E+03 0.954E+03   -.276E+02 -.267E+02 -.287E+02   -.430E-03 -.325E-02 0.218E-02
   -.349E+03 -.698E+02 -.407E+03   0.342E+03 0.106E+03 0.433E+03   0.776E+01 -.287E+02 -.164E+02   0.645E-03 -.148E-02 -.561E-02
   0.648E+03 0.320E+03 -.365E+02   -.644E+03 -.336E+03 0.337E+02   -.554E+01 0.116E+02 0.263E+01   0.668E-03 0.104E-02 -.159E-02
   -.163E+03 0.116E+04 0.862E+03   0.150E+03 -.131E+04 -.945E+03   -.707E+01 0.190E+02 0.140E+02   0.819E-03 -.806E-03 0.153E-02
   0.441E+03 -.240E+03 0.433E+03   -.452E+03 0.356E+03 -.495E+03   0.252E+02 0.204E+02 0.473E+02   -.516E-02 0.112E-02 0.221E-02
   -.344E+03 -.415E+03 0.599E+03   0.368E+03 0.406E+03 -.644E+03   -.158E+02 0.122E+02 0.321E+02   0.221E-02 -.252E-02 -.871E-03
   -.907E+03 0.343E+02 0.501E+03   0.913E+03 -.238E+02 -.510E+03   -.136E+01 -.103E+02 0.573E+01   0.194E-02 0.228E-02 0.225E-03
   0.777E+03 -.769E+03 -.167E+03   -.830E+03 0.841E+03 0.162E+03   0.287E+02 -.313E+02 0.136E+01   -.165E-02 -.209E-04 -.107E-02
   -.125E+04 0.110E+03 0.109E+03   0.137E+04 -.743E+02 -.920E+02   -.526E+02 0.510E+02 0.283E+02   0.303E-03 -.325E-02 -.795E-03
   0.184E+04 0.129E+03 0.172E+04   -.285E+04 0.149E+02 -.279E+04   0.914E+03 -.225E+03 0.974E+03   -.979E-02 -.186E-02 -.518E-02
   -.105E+04 -.204E+03 0.380E+03   0.112E+04 0.210E+03 -.425E+03   -.451E+02 0.173E+01 0.236E+02   0.216E-03 -.110E-02 -.324E-03
   -.960E+03 0.158E+04 0.373E+03   0.110E+04 -.178E+04 -.519E+03   -.743E+01 0.563E+02 -.560E+02   0.208E-02 0.448E-02 0.557E-03
   0.582E+03 0.722E+02 -.227E+03   -.610E+03 -.141E+03 0.217E+03   0.184E+02 0.471E+02 0.320E+01   0.708E-03 -.311E-02 0.188E-02
   -.714E+03 0.449E+03 -.461E+03   0.780E+03 -.414E+03 0.490E+03   -.207E+02 -.172E+02 0.211E+01   0.245E-02 0.202E-02 -.987E-03
   0.440E+03 0.505E+03 -.113E+04   -.491E+03 -.546E+03 0.121E+04   0.286E+02 0.208E+02 -.487E+02   -.205E-02 0.134E-02 0.798E-03
   -.185E+04 -.156E+03 -.150E+04   0.204E+04 0.114E+03 0.170E+04   -.500E+02 -.178E+02 -.405E+02   -.572E-03 -.254E-02 -.229E-02
   0.161E+04 0.107E+03 -.682E+02   -.175E+04 -.183E+03 0.281E+02   0.350E+02 0.179E+02 -.666E+01   0.553E-03 -.660E-03 -.256E-02
   0.191E+04 -.104E+04 0.712E+01   -.208E+04 0.117E+04 0.615E+02   0.757E+02 -.660E+02 -.549E+01   -.502E-02 -.679E-03 0.250E-02
   -.452E+03 0.149E+04 0.385E+03   0.501E+03 -.161E+04 -.428E+03   -.185E+02 0.495E+02 0.148E+02   -.122E-02 -.320E-02 0.184E-02
   0.192E+04 0.314E+03 -.438E+02   -.231E+04 -.397E+03 0.293E+03   0.421E+02 -.357E+02 0.552E+02   0.571E-03 0.456E-02 0.136E-02
   -.128E+04 -.151E+04 -.150E+03   0.137E+04 0.173E+04 0.255E+03   -.250E+02 -.376E+02 -.152E+02   0.357E-03 0.445E-03 0.104E-02
   -.111E+04 0.135E+04 -.721E+02   0.116E+04 -.147E+04 0.178E+02   -.238E+02 0.548E+02 0.106E+02   0.285E-02 0.275E-02 0.250E-02
   0.915E+03 -.203E+04 -.788E+03   -.104E+04 0.225E+04 0.863E+03   0.119E+02 -.234E+02 0.177E+02   -.129E-02 0.140E-02 -.400E-03
   -.473E+03 -.536E+03 0.870E+03   0.622E+03 0.665E+03 -.918E+03   -.736E+01 0.472E+01 0.941E+01   -.558E-03 0.258E-02 0.364E-02
   -.116E+04 -.821E+03 0.101E+04   0.140E+04 0.948E+03 -.132E+04   0.255E+02 0.106E+02 -.405E+02   0.260E-02 0.221E-03 0.486E-03
   0.399E+03 -.489E+03 -.117E+04   -.439E+03 0.519E+03 0.122E+04   0.283E+02 -.138E+02 -.305E+02   0.122E-02 -.242E-02 0.161E-02
   0.302E+03 0.789E+03 0.286E+02   -.317E+03 -.811E+03 -.339E+02   0.107E+02 0.172E+02 0.488E+01   0.145E-02 0.131E-02 -.367E-02
   -.621E+03 -.132E+03 -.674E+03   0.632E+03 0.145E+03 0.114E+04   0.460E+01 -.185E+02 0.192E+02   0.137E-02 0.370E-02 -.424E-03
   -.424E+03 0.124E+03 -.534E+03   0.600E+03 -.205E+03 0.359E+03   0.964E+01 -.227E+02 -.333E+02   -.310E-03 0.253E-02 0.500E-02
   0.950E+03 -.818E+03 -.752E+03   -.106E+04 0.885E+03 0.829E+03   0.421E+02 -.304E+02 -.273E+02   -.151E-02 -.138E-02 -.235E-02
   -.105E+04 0.290E+03 -.535E+03   0.210E+04 -.477E+03 0.147E+04   -.921E+03 0.239E+03 -.950E+03   0.912E-03 -.425E-02 0.604E-02
   0.833E+01 0.590E+02 -.816E+03   -.963E+02 0.438E-01 0.103E+04   -.238E+02 0.565E+01 0.223E+02   0.222E-02 0.499E-02 0.272E-02
   0.297E+03 -.870E+02 -.252E+04   -.447E+03 0.426E+02 0.304E+04   -.211E+02 -.196E+02 -.459E+01   0.251E-03 0.110E-02 -.822E-03
   -.698E+03 -.101E+04 0.587E+03   0.768E+03 0.115E+04 -.769E+03   -.314E+02 -.315E+02 0.566E+01   -.192E-02 -.196E-02 -.162E-02
   0.626E+03 -.874E+03 0.953E+03   -.636E+03 0.963E+03 -.105E+04   0.303E+02 -.336E+02 0.206E+02   -.315E-02 -.117E-03 -.539E-02
   -.209E+04 0.530E+02 0.224E+04   0.246E+04 -.396E+02 -.275E+04   -.287E+02 -.397E+01 -.196E+00   0.162E-04 0.118E-02 0.289E-02
   0.171E+03 -.872E+03 0.107E+04   -.147E+03 0.961E+03 -.141E+04   0.274E+02 -.378E+02 -.215E+02   -.720E-04 0.323E-02 0.240E-02
   0.162E+03 -.332E+03 -.533E+03   -.117E+03 0.334E+03 0.594E+03   -.174E+02 -.219E+01 -.317E+01   -.148E-02 0.693E-03 -.369E-02
   0.274E+03 0.794E+03 -.115E+04   -.329E+03 -.884E+03 0.134E+04   -.356E+01 0.390E+02 -.493E+02   -.217E-02 -.226E-02 0.272E-02
   0.980E+03 0.997E+03 0.621E+03   -.112E+04 -.115E+04 -.631E+03   -.457E+01 0.145E+02 0.236E+02   -.382E-03 0.191E-02 0.322E-02
   -.318E+01 -.130E+03 -.872E+02   -.232E+01 0.132E+03 0.923E+02   0.550E+01 -.153E+01 -.454E+01   -.123E-03 -.247E-02 0.163E-02
   0.252E+03 0.866E+03 0.265E+03   -.247E+03 -.894E+03 -.256E+03   -.889E+01 0.162E+02 -.161E+02   -.828E-03 -.933E-03 -.311E-02
   0.111E+04 0.166E+03 0.213E+04   -.124E+04 -.170E+03 -.256E+04   0.403E+02 0.609E+01 -.358E+01   -.894E-03 0.274E-02 0.257E-03
   0.260E+03 0.276E+03 0.652E+03   -.261E+03 -.277E+03 -.664E+03   0.764E+00 -.105E+01 0.908E+01   -.831E-03 0.111E-03 0.396E-03
   0.533E+02 0.200E+03 0.744E+02   -.673E+02 -.204E+03 -.633E+02   0.106E+02 0.872E+00 -.109E+02   0.266E-03 -.338E-02 -.344E-02
   0.846E+03 0.128E+03 0.874E+03   -.948E+03 -.136E+03 -.962E+03   0.527E+02 0.952E+01 0.570E+02   0.222E-03 -.785E-03 -.345E-03
   0.187E+03 0.836E+03 -.270E+03   -.210E+03 -.980E+03 0.262E+03   -.235E+01 -.618E+01 -.363E+01   -.407E-02 -.892E-03 0.811E-03
   0.440E+02 0.308E+03 -.410E+03   -.145E+02 -.338E+03 0.444E+03   -.219E+02 0.240E+02 -.216E+02   -.198E-02 0.986E-03 -.455E-03
   0.279E+03 -.149E+03 -.102E+04   -.506E+03 0.496E+02 0.133E+04   -.281E+02 -.251E+02 0.381E+02   0.267E-02 -.600E-04 0.110E-02
 -----------------------------------------------------------------------------------------------
   -.143E+02 0.399E+02 0.186E+02   -.398E-12 -.105E-11 0.114E-11   0.143E+02 -.399E+02 -.186E+02   -.157E-01 0.683E-03 0.849E-02
 
 
 POSITION                                       TOTAL-FORCE (eV/Angst)
 -----------------------------------------------------------------------------------
      4.57166      3.43738      2.82143        16.586341      7.138700      5.403580
      0.70448      5.25179      2.78076        21.973201     11.189338     37.863641
     -0.63865      0.46039      5.54859         0.659813      7.075150      9.215425
     -0.82643     -2.81083      5.80787        -1.639061     -4.280387     -0.189604
     -1.23312      0.97821      3.85558       -20.004812   -135.021974    -69.508895
      2.22972     -1.16742      4.03198        13.623424    136.822394    -14.472970
      3.96036      3.20682      1.12246         7.998545      2.963246    -12.229320
      3.32192      6.93575      1.09851         5.340553      0.107994     -3.787466
     -1.87126      4.39334      4.34515       -24.992895     40.596745     -3.442261
     -1.02524      1.87775      4.31905        67.904519     86.492521     45.694891
     -0.75066      4.73683      1.56369       -94.346289    -81.264948    -90.308820
      1.03402      5.16404      1.46443        27.024260      7.153902    -21.222140
      4.54560     -0.14512      2.23343       132.801037   -140.049899   -201.454141
      3.33723      2.58944      2.48452        -9.850293    -21.681130     -6.658369
      5.02431     -0.43762      5.17513        45.982824     17.496577     31.786912
      1.90278     -1.35320      5.39974       -22.670888    -20.257055     27.510378
     -0.90990      2.77048      5.27266       136.015664    -60.375943    156.165039
     -2.82496      2.09940      5.30866      -108.151921    -57.896291    -46.758998
     -1.42232      5.28421      2.22701       -93.231552     65.346457     63.112321
     -0.07311      3.17334      2.20859        29.644224    -65.557956    -28.033576
      3.86853      0.68817      1.53788      -345.798492   -118.768292    304.237067
      5.19537      1.83859      1.80712        71.781401    179.741589     89.617833
      4.17675     -0.88686      4.45334        33.206968    -61.494156    -43.675933
      2.62169      0.96919      4.38694      -113.270816    199.174081     93.221627
      0.30632     -0.08111      3.36289       141.103279    133.535615    -38.378940
      3.46122      5.05811      1.38154       258.455415    137.723119   -345.932119
      3.01947      3.62048      3.35731       -11.266826     15.923552     23.866638
     -1.47472     -1.07371      6.12074        -4.111761     -5.271403     -0.405326
      4.63377      0.92940      1.73200        16.297153     -4.616712    483.284638
      3.18985     -0.32080      4.66987       186.533353   -104.286297   -208.573034
     -2.05483      2.84405      5.10811       -72.781027     36.297696     49.592285
     -0.34093      4.64043      1.98930       132.558089     52.912435    -18.718062
      4.14888      0.08081      3.01622      -111.751829     64.700254    241.145708
      2.91672     -0.43638      5.40151      -171.453059    -64.095594    513.857133
     -1.30412      3.28013      4.50159        38.527933    108.723050   -176.333511
     -0.37171      5.31270      0.70185        20.187347     55.363960    -71.983747
      5.11709      1.06865      1.13654       348.937149      9.480794   -504.420301
      3.06541      0.22890      4.01365        51.348582     51.181157   -355.890939
     -2.53503      1.93428      6.40059        27.738244      0.284982     57.967057
     -0.58109      4.05044      2.81363       -58.564959    -51.157192    147.702210
     -0.38967     -0.75369      3.50718      -145.913448   -138.869921     14.077220
      1.30615      1.96225      3.12460        -0.002245      0.908151      0.552443
     -0.20359      3.78938      0.08941        -4.037466    -12.004040     -7.219016
      3.72934      0.69978      0.71936       -92.320298      1.589888   -438.808869
      0.53772      0.78142      1.35345        -0.344803     -1.254118     -3.299957
      2.38916      3.46186      0.54276        -3.479568     -2.361999      0.238893
     -2.22569      1.94692      3.89698       -49.132013      1.555078    -31.054876
      2.04728     -2.16252      3.94474       -25.033543   -150.325082    -11.950240
      0.18545     -0.66427      4.87075         7.670670     -6.481050     12.694432
      2.99048      4.81247      2.01705      -255.750125   -124.106986    345.904057
 -----------------------------------------------------------------------------------
    total drift:                                0.001746     -0.009902     -0.003741


--------------------------------------------------------------------------------------------------------



  FREE ENERGIE OF THE ION-ELECTRON SYSTEM (eV)
  ---------------------------------------------------
  free  energy   TOTEN  =      1573.01540276 eV

  energy  without entropy=     1573.00991196  energy(sigma->0) =     1573.01357249
 


--------------------------------------------------------------------------------------------------------


    POTLOK:  cpu time    0.0428: real time    0.1736


--------------------------------------------------------------------------------------------------------


     LOOP+:  cpu time   35.2273: real time  142.4160
    4ORBIT:  cpu time    0.0000: real time    0.0000

 total amount of memory used by VASP MPI-rank0    40820. kBytes
=======================================================================

   base      :      30000. kBytes
   nonlr-proj:       5631. kBytes
   fftplans  :       1828. kBytes
   grid      :       2557. kBytes
   one-center:         21. kBytes
   wavefun   :        783. kBytes
 
  
  
 General timing and accounting informations for this job:
 ========================================================
  
                  Total CPU time used (sec):       36.630
                            User time (sec):       25.310
                          System time (sec):       11.320
                         Elapsed time (sec):      149.853
  
                   Maximum memory used (kb):      147376.
                   Average memory used (kb):           0.
  
                          Minor page faults:        15962
                          Major page faults:           78
                 Voluntary context switches:          529
