8.288162859765359158e+00 0.000000000000000000e+00 0.000000000000000000e+00 -2.762716867248350194e+00 7.814156326911770201e+00 0.000000000000000000e+00 -2.762716867248350194e+00 -3.907069495731419817e+00 6.767262892554150255e+00
