4.571658096135331029e+00 3.437383214825971756e+00 2.821429457289289733e+00 7.044822648450910219e-01 5.251794780737709445e+00 2.780763341389431709e+00 -6.386456763257003511e-01 4.603879220001197980e-01 5.548589818866313195e+00 -8.264251637812959350e-01 -2.810831831095202737e+00 5.807874679635747661e+00 -1.233119037555036268e+00 9.782124795312148180e-01 3.855576367053601849e+00 2.229721061828009443e+00 -1.167422748116270448e+00 4.031977851772015953e+00 3.960358340335420557e+00 3.206824256562127662e+00 1.122464596600282860e+00 3.321917982422144977e+00 6.935746811342411000e+00 1.098509321538079897e+00 -1.871260797674199727e+00 4.393344704302286630e+00 4.345147313219546170e+00 -1.025242039150706441e+00 1.877752257225046462e+00 4.319052102525975378e+00 -7.506567400085394359e-01 4.736828807461406221e+00 1.563689105493089038e+00 1.034021474907412586e+00 5.164037923656311868e+00 1.464428866653321837e+00 4.545599315510797211e+00 -1.451163549182057921e-01 2.233426745340965969e+00 3.337234272883846664e+00 2.589443947960472059e+00 2.484516392127442241e+00 5.024309490822708391e+00 -4.376221636237077606e-01 5.175125135136227073e+00 1.902784354898434005e+00 -1.353197370577762904e+00 5.399744465019166384e+00 -9.099047898893142250e-01 2.770476172017517502e+00 5.272659180721380068e+00 -2.824963835076855112e+00 2.099402218884201865e+00 5.308661855786724892e+00 -1.422317007503199671e+00 5.284209034548344341e+00 2.227014495340532640e+00 -7.311198031544084708e-02 3.173344598903125036e+00 2.208594899187080962e+00 3.868527891259238682e+00 6.881666584633103767e-01 1.537876417682232377e+00 5.195365853301290748e+00 1.838585955782265913e+00 1.807120362884443665e+00 4.176753818407580532e+00 -8.868640199179437245e-01 4.453337938845890243e+00 2.621692345578499950e+00 9.691861897367538559e-01 4.386935328914541188e+00 3.063207507898577653e-01 -8.111432871393571553e-02 3.362894479880559562e+00 3.461217555596018070e+00 5.058114714704036174e+00 1.381541014364428666e+00 3.019470479188801626e+00 3.620482763720317632e+00 3.357309536181754872e+00 -1.474720583123337425e+00 -1.073712347040349568e+00 6.120735019467728577e+00 4.633765333486342008e+00 9.294048943975017352e-01 1.731999617718716689e+00 3.189847313204753121e+00 -3.207989506646744537e-01 4.669873767542695120e+00 -2.054830679387385839e+00 2.844047259523510007e+00 5.108106296638976751e+00 -3.409273444813086806e-01 4.640430715837741360e+00 1.989295369094745247e+00 4.148876748088556887e+00 8.081275131929244182e-02 3.016216950070159442e+00 2.916721829864877158e+00 -4.363800520117136483e-01 5.401513136430003748e+00 -1.304116022943557329e+00 3.280133682972333986e+00 4.501594674085060532e+00 -3.717067772931355596e-01 5.312695358984695915e+00 7.018451999998597257e-01 5.117087358382740092e+00 1.068648482364273455e+00 1.136540944835439992e+00 3.065405553586680210e+00 2.288959279564452554e-01 4.013650823428462466e+00 -2.535028671487011831e+00 1.934283076107424337e+00 6.400588671568549159e+00 -5.810886524686733612e-01 4.050436949381940543e+00 2.813628860310454005e+00 -3.896741797125811702e-01 -7.536853414181248212e-01 3.507182851115286937e+00 1.306151449798162112e+00 1.962246799714745915e+00 3.124599261330753830e+00 -2.035922630330241900e-01 3.789382435121257942e+00 8.940862395285816000e-02 3.729336825448437143e+00 6.997792142011893812e-01 7.193625356698108986e-01 5.377218853506717799e-01 7.814173778800951320e-01 1.353452598678843488e+00 2.389163735836740798e+00 3.461857433317915955e+00 5.427581251857284128e-01 -2.225694542013430421e+00 1.946923025393233475e+00 3.896977263090174226e+00 2.047282126897777665e+00 -2.162516217791470741e+00 3.944737047303837674e+00 1.854536261074222758e-01 -6.642726018470107574e-01 4.870746792765108246e+00 2.990484822784215346e+00 4.812471365405992074e+00 2.017053443945155511e+00
